
     Program PWSCF v.5.2.0 starts on 26Oct2020 at 20:18:45 

     This program is part of the open-source Quantum ESPRESSO suite
     for quantum simulation of materials; please cite
         "P. Giannozzi et al., J. Phys.:Condens. Matter 21 395502 (2009);
          URL http://www.quantum-espresso.org", 
     in publications or presentations arising from this work. More details at
     http://www.quantum-espresso.org/quote

     Parallel version (MPI), running on     6 processors
     R & G space division:  proc/nbgrp/npool/nimage =       6
     Reading input from 1.in

     Current dimensions of program PWSCF are:
     Max number of different atomic species (ntypx) = 10
     Max number of k-points (npk) =  40000
     Max angular momentum in pseudopotentials (lmaxx) =  3

     IMPORTANT: XC functional enforced from input :
     Exchange-correlation      = PBE ( 1  4  3  4 0 0)
     Any further DFT definition will be discarded
     Please, verify this is what you really want

               file Fe_PSEUDO: wavefunction(s)  3P 3D renormalized
               file N_PSEUDO: wavefunction(s)  2S renormalized

     Subspace diagonalization in iterative solution of the eigenvalue problem:
     a serial algorithm will be used

 
     Parallelization info
     --------------------
     sticks:   dense  smooth     PW     G-vecs:    dense   smooth      PW
     Min         316     182     46                10419     4510     566
     Max         318     183     47                10422     4521     569
     Sum        1901    1093    277                62525    27081    3407
 
     Generating pointlists ...
     new r_m :   0.2063 (alat units)  1.4318 (a.u.) for type    1
     new r_m :   0.2063 (alat units)  1.4318 (a.u.) for type    2


     bravais-lattice index     =            0
     lattice parameter (alat)  =       6.9422  a.u.
     unit-cell volume          =     334.5777 (a.u.)^3
     number of atoms/cell      =            5
     number of atomic types    =            2
     number of electrons       =        69.00
     number of Kohn-Sham states=           42
     kinetic-energy cutoff     =      71.0000  Ry
     charge density cutoff     =     496.0000  Ry
     convergence threshold     =      1.0E-08
     mixing beta               =       0.7000
     number of iterations used =            8  plain     mixing
     Exchange-correlation      = PBE ( 1  4  3  4 0 0)

     celldm(1)=   6.942230  celldm(2)=   0.000000  celldm(3)=   0.000000
     celldm(4)=   0.000000  celldm(5)=   0.000000  celldm(6)=   0.000000

     crystal axes: (cart. coord. in units of alat)
               a(1) = (   1.000000   0.000000   0.000000 )  
               a(2) = (   0.000000   1.000000   0.000000 )  
               a(3) = (   0.000000   0.000000   1.000000 )  

     reciprocal axes: (cart. coord. in units 2 pi/alat)
               b(1) = (  1.000000  0.000000  0.000000 )  
               b(2) = (  0.000000  1.000000  0.000000 )  
               b(3) = (  0.000000  0.000000  1.000000 )  


     PseudoPot. # 1 for Fe read from file:
     pseudo/Fe_PSEUDO
     MD5 check sum: e30d5f36a6f0cb983ee41abee56170da
     Pseudo is Projector augmented-wave + core cor, Zval = 16.0
     Generated using "atomic" code by A. Dal Corso  v.6.3
     Shape of augmentation charge: PSQ
     Using radial grid of 1191 points,  6 beta functions with: 
                l(1) =   0
                l(2) =   0
                l(3) =   1
                l(4) =   1
                l(5) =   2
                l(6) =   2
     Q(r) pseudized with 0 coefficients 


     PseudoPot. # 2 for  N read from file:
     pseudo/N_PSEUDO
     MD5 check sum: 14c48229446f9f2d411169a3abcbc3fa
     Pseudo is Projector augmented-wave + core cor, Zval =  5.0
     Generated using "atomic" code by A. Dal Corso  v.6.3
     Shape of augmentation charge: PSQ
     Using radial grid of 1085 points,  4 beta functions with: 
                l(1) =   0
                l(2) =   0
                l(3) =   1
                l(4) =   1
     Q(r) pseudized with 0 coefficients 


     atomic species   valence    mass     pseudopotential
        Fe            16.00    55.84500     Fe( 1.00)
        N              5.00    14.00650      N( 1.00)

     Starting magnetic structure 
     atomic species   magnetization
        Fe           0.500
        N           -0.010

     48 Sym. Ops., with inversion, found



   Cartesian axes

     site n.     atom                  positions (alat units)
         1           Fe  tau(   1) = (   0.0000000   0.5000000   0.5000000  )
         2           Fe  tau(   2) = (   0.5000000   0.5000000   0.0000000  )
         3           Fe  tau(   3) = (   0.5000000   0.0000000   0.5000000  )
         4           Fe  tau(   4) = (   0.0000000   0.0000000   0.0000000  )
         5           N   tau(   5) = (   0.5000000   0.5000000   0.5000000  )

     number of k points=     2  Marzari-Vanderbilt smearing, width (Ry)=  0.0050
                       cart. coord. in units 2pi/alat
        k(    1) = (   0.0000000   0.0000000   0.0000000), wk =   1.0000000
        k(    2) = (   0.0000000   0.0000000   0.0000000), wk =   1.0000000

     Dense  grid:    62525 G-vectors     FFT dimensions: (  50,  50,  50)

     Smooth grid:    27081 G-vectors     FFT dimensions: (  40,  40,  40)

     Largest allocated arrays     est. size (Mb)     dimensions
        Kohn-Sham Wavefunctions         0.36 Mb     (     568,   42)
        NL pseudopotentials             0.69 Mb     (     568,   80)
        Each V/rho on FFT grid          0.69 Mb     (   22500,   2)
        Each G-vector array             0.08 Mb     (   10422)
        G-vector shells                 0.00 Mb     (     497)
     Largest temporary arrays     est. size (Mb)     dimensions
        Auxiliary wavefunctions         1.46 Mb     (     568,  168)
        Each subspace H/S matrix        0.43 Mb     (     168,  168)
        Each <psi_i|beta_j> matrix      0.05 Mb     (      80,   42)
        Arrays for rho mixing           2.75 Mb     (   22500,    8)

     Check: negative/imaginary core charge=   -0.000002    0.000000

     Initial potential from superposition of free atoms

     starting charge   68.99837, renormalised to   69.00000
     Starting wfc are   44 randomized atomic wfcs
     Checking if some PAW data can be deallocated... 

     total cpu time spent up to now is        1.7 secs

     per-process dynamical memory:    28.9 Mb

     Self-consistent Calculation

     iteration #  1     ecut=    71.00 Ry     beta=0.70
     Davidson diagonalization with overlap
     ethr =  1.00E-02,  avg # of iterations =  5.0

     negative rho (up, down):  0.000E+00 8.953E-04
 
     Magnetic moment per site:
     atom:    1    charge:   12.8995    magn:    4.0804    constr:    0.0000
     atom:    2    charge:   12.8995    magn:    4.0804    constr:    0.0000
     atom:    3    charge:   12.8995    magn:    4.0804    constr:    0.0000
     atom:    4    charge:   12.7423    magn:    4.0609    constr:    0.0000
     atom:    5    charge:    4.7739    magn:    0.0372    constr:    0.0000

     total cpu time spent up to now is        2.4 secs

     total energy              =   -1343.90549392 Ry
     Harris-Foulkes estimate   =   -1343.50474561 Ry
     estimated scf accuracy    <       3.38858334 Ry

     total magnetization       =    13.00 Bohr mag/cell
     absolute magnetization    =    13.64 Bohr mag/cell

     iteration #  2     ecut=    71.00 Ry     beta=0.70
     Davidson diagonalization with overlap
     ethr =  4.91E-03,  avg # of iterations =  3.5

     negative rho (up, down):  0.000E+00 9.543E-04
 
     Magnetic moment per site:
     atom:    1    charge:   12.7915    magn:    3.8385    constr:    0.0000
     atom:    2    charge:   12.7915    magn:    3.8385    constr:    0.0000
     atom:    3    charge:   12.7915    magn:    3.8385    constr:    0.0000
     atom:    4    charge:   13.1769    magn:    3.4810    constr:    0.0000
     atom:    5    charge:    4.2448    magn:    0.0001    constr:    0.0000

     total cpu time spent up to now is        3.1 secs

     total energy              =   -1342.83735537 Ry
     Harris-Foulkes estimate   =   -1346.04822255 Ry
     estimated scf accuracy    <       9.80193960 Ry

     total magnetization       =    11.00 Bohr mag/cell
     absolute magnetization    =    11.71 Bohr mag/cell

     iteration #  3     ecut=    71.00 Ry     beta=0.70
     Davidson diagonalization with overlap
     ethr =  4.91E-03,  avg # of iterations =  3.5

     negative rho (up, down):  0.000E+00 8.843E-04
 
     Magnetic moment per site:
     atom:    1    charge:   12.9212    magn:    3.4562    constr:    0.0000
     atom:    2    charge:   12.9212    magn:    3.4562    constr:    0.0000
     atom:    3    charge:   12.9212    magn:    3.4562    constr:    0.0000
     atom:    4    charge:   12.8070    magn:    2.8454    constr:    0.0000
     atom:    5    charge:    4.0224    magn:   -0.0131    constr:    0.0000

     total cpu time spent up to now is        3.9 secs

     total energy              =   -1343.27788359 Ry
     Harris-Foulkes estimate   =   -1345.85130418 Ry
     estimated scf accuracy    <      19.10265145 Ry

     total magnetization       =     7.00 Bohr mag/cell
     absolute magnetization    =     7.39 Bohr mag/cell

     iteration #  4     ecut=    71.00 Ry     beta=0.70
     Davidson diagonalization with overlap
     ethr =  4.91E-03,  avg # of iterations =  3.5

     negative rho (up, down):  0.000E+00 1.218E-03
 
     Magnetic moment per site:
     atom:    1    charge:   12.8335    magn:    2.4223    constr:    0.0000
     atom:    2    charge:   12.8335    magn:    2.4223    constr:    0.0000
     atom:    3    charge:   12.8335    magn:    2.4223    constr:    0.0000
     atom:    4    charge:   12.8870    magn:    1.2663    constr:    0.0000
     atom:    5    charge:    4.2052    magn:   -0.0677    constr:    0.0000

     total cpu time spent up to now is        4.6 secs

     total energy              =   -1344.87043594 Ry
     Harris-Foulkes estimate   =   -1345.11788515 Ry
     estimated scf accuracy    <       1.46999533 Ry

     total magnetization       =    11.00 Bohr mag/cell
     absolute magnetization    =    11.62 Bohr mag/cell

     iteration #  5     ecut=    71.00 Ry     beta=0.70
     Davidson diagonalization with overlap
     ethr =  2.13E-03,  avg # of iterations =  2.0

     negative rho (up, down):  0.000E+00 1.151E-03
 
     Magnetic moment per site:
     atom:    1    charge:   12.8541    magn:    2.5451    constr:    0.0000
     atom:    2    charge:   12.8541    magn:    2.5451    constr:    0.0000
     atom:    3    charge:   12.8541    magn:    2.5451    constr:    0.0000
     atom:    4    charge:   12.9348    magn:    1.7054    constr:    0.0000
     atom:    5    charge:    4.2018    magn:   -0.0460    constr:    0.0000

     total cpu time spent up to now is        5.3 secs

     total energy              =   -1344.98425528 Ry
     Harris-Foulkes estimate   =   -1344.99079441 Ry
     estimated scf accuracy    <       0.23385337 Ry

     total magnetization       =    11.00 Bohr mag/cell
     absolute magnetization    =    11.49 Bohr mag/cell

     iteration #  6     ecut=    71.00 Ry     beta=0.70
     Davidson diagonalization with overlap
     ethr =  3.39E-04,  avg # of iterations =  2.0

     negative rho (up, down):  0.000E+00 1.175E-03
 
     Magnetic moment per site:
     atom:    1    charge:   12.8532    magn:    2.5603    constr:    0.0000
     atom:    2    charge:   12.8532    magn:    2.5603    constr:    0.0000
     atom:    3    charge:   12.8532    magn:    2.5603    constr:    0.0000
     atom:    4    charge:   12.9334    magn:    1.7914    constr:    0.0000
     atom:    5    charge:    4.2019    magn:   -0.0445    constr:    0.0000

     total cpu time spent up to now is        6.0 secs

     total energy              =   -1345.00478091 Ry
     Harris-Foulkes estimate   =   -1345.00209213 Ry
     estimated scf accuracy    <       0.03871820 Ry

     total magnetization       =    11.00 Bohr mag/cell
     absolute magnetization    =    11.50 Bohr mag/cell

     iteration #  7     ecut=    71.00 Ry     beta=0.70
     Davidson diagonalization with overlap
     ethr =  5.61E-05,  avg # of iterations =  1.5

     negative rho (up, down):  0.000E+00 1.288E-03
 
     Magnetic moment per site:
     atom:    1    charge:   12.8564    magn:    2.5445    constr:    0.0000
     atom:    2    charge:   12.8564    magn:    2.5445    constr:    0.0000
     atom:    3    charge:   12.8564    magn:    2.5445    constr:    0.0000
     atom:    4    charge:   12.9241    magn:    2.2193    constr:    0.0000
     atom:    5    charge:    4.2096    magn:   -0.0473    constr:    0.0000

     total cpu time spent up to now is        6.8 secs

     total energy              =   -1345.01446422 Ry
     Harris-Foulkes estimate   =   -1345.00506322 Ry
     estimated scf accuracy    <       0.02986896 Ry

     total magnetization       =    11.00 Bohr mag/cell
     absolute magnetization    =    11.51 Bohr mag/cell

     iteration #  8     ecut=    71.00 Ry     beta=0.70
     Davidson diagonalization with overlap
     ethr =  4.33E-05,  avg # of iterations =  1.0

     negative rho (up, down):  0.000E+00 1.393E-03
 
     Magnetic moment per site:
     atom:    1    charge:   12.8569    magn:    2.5617    constr:    0.0000
     atom:    2    charge:   12.8569    magn:    2.5617    constr:    0.0000
     atom:    3    charge:   12.8569    magn:    2.5617    constr:    0.0000
     atom:    4    charge:   12.9222    magn:    2.5879    constr:    0.0000
     atom:    5    charge:    4.2126    magn:   -0.0427    constr:    0.0000

     total cpu time spent up to now is        7.6 secs

     total energy              =   -1345.01794281 Ry
     Harris-Foulkes estimate   =   -1345.01588887 Ry
     estimated scf accuracy    <       0.00587408 Ry

     total magnetization       =    11.00 Bohr mag/cell
     absolute magnetization    =    11.54 Bohr mag/cell

     iteration #  9     ecut=    71.00 Ry     beta=0.70
     Davidson diagonalization with overlap
     ethr =  8.51E-06,  avg # of iterations =  3.0

     negative rho (up, down):  0.000E+00 1.395E-03
 
     Magnetic moment per site:
     atom:    1    charge:   12.8576    magn:    2.5609    constr:    0.0000
     atom:    2    charge:   12.8576    magn:    2.5609    constr:    0.0000
     atom:    3    charge:   12.8576    magn:    2.5609    constr:    0.0000
     atom:    4    charge:   12.9269    magn:    2.6219    constr:    0.0000
     atom:    5    charge:    4.2085    magn:   -0.0387    constr:    0.0000

     total cpu time spent up to now is        8.3 secs

     total energy              =   -1345.01920990 Ry
     Harris-Foulkes estimate   =   -1345.01923164 Ry
     estimated scf accuracy    <       0.00022209 Ry

     total magnetization       =    11.00 Bohr mag/cell
     absolute magnetization    =    11.59 Bohr mag/cell

     iteration # 10     ecut=    71.00 Ry     beta=0.70
     Davidson diagonalization with overlap
     ethr =  3.22E-07,  avg # of iterations =  3.0

     negative rho (up, down):  0.000E+00 1.394E-03
 
     Magnetic moment per site:
     atom:    1    charge:   12.8576    magn:    2.5592    constr:    0.0000
     atom:    2    charge:   12.8576    magn:    2.5592    constr:    0.0000
     atom:    3    charge:   12.8576    magn:    2.5592    constr:    0.0000
     atom:    4    charge:   12.9253    magn:    2.6145    constr:    0.0000
     atom:    5    charge:    4.2104    magn:   -0.0386    constr:    0.0000

     total cpu time spent up to now is        9.1 secs

     total energy              =   -1345.01923840 Ry
     Harris-Foulkes estimate   =   -1345.01925660 Ry
     estimated scf accuracy    <       0.00007597 Ry

     total magnetization       =    11.00 Bohr mag/cell
     absolute magnetization    =    11.59 Bohr mag/cell

     iteration # 11     ecut=    71.00 Ry     beta=0.70
     Davidson diagonalization with overlap
     ethr =  1.10E-07,  avg # of iterations =  2.0

     negative rho (up, down):  0.000E+00 1.393E-03
 
     Magnetic moment per site:
     atom:    1    charge:   12.8575    magn:    2.5595    constr:    0.0000
     atom:    2    charge:   12.8575    magn:    2.5595    constr:    0.0000
     atom:    3    charge:   12.8575    magn:    2.5595    constr:    0.0000
     atom:    4    charge:   12.9251    magn:    2.6120    constr:    0.0000
     atom:    5    charge:    4.2107    magn:   -0.0378    constr:    0.0000

     total cpu time spent up to now is        9.9 secs

     total energy              =   -1345.01924547 Ry
     Harris-Foulkes estimate   =   -1345.01924583 Ry
     estimated scf accuracy    <       0.00000161 Ry

     total magnetization       =    11.00 Bohr mag/cell
     absolute magnetization    =    11.59 Bohr mag/cell

     iteration # 12     ecut=    71.00 Ry     beta=0.70
     Davidson diagonalization with overlap
     ethr =  2.33E-09,  avg # of iterations =  3.0

     negative rho (up, down):  0.000E+00 1.393E-03
 
     Magnetic moment per site:
     atom:    1    charge:   12.8576    magn:    2.5596    constr:    0.0000
     atom:    2    charge:   12.8576    magn:    2.5596    constr:    0.0000
     atom:    3    charge:   12.8576    magn:    2.5596    constr:    0.0000
     atom:    4    charge:   12.9252    magn:    2.6131    constr:    0.0000
     atom:    5    charge:    4.2106    magn:   -0.0376    constr:    0.0000

     total cpu time spent up to now is       10.7 secs

     total energy              =   -1345.01924606 Ry
     Harris-Foulkes estimate   =   -1345.01924616 Ry
     estimated scf accuracy    <       0.00000089 Ry

     total magnetization       =    11.00 Bohr mag/cell
     absolute magnetization    =    11.59 Bohr mag/cell

     iteration # 13     ecut=    71.00 Ry     beta=0.70
     Davidson diagonalization with overlap
     ethr =  1.29E-09,  avg # of iterations =  2.0

     negative rho (up, down):  0.000E+00 1.393E-03
 
     Magnetic moment per site:
     atom:    1    charge:   12.8576    magn:    2.5596    constr:    0.0000
     atom:    2    charge:   12.8576    magn:    2.5596    constr:    0.0000
     atom:    3    charge:   12.8576    magn:    2.5596    constr:    0.0000
     atom:    4    charge:   12.9252    magn:    2.6133    constr:    0.0000
     atom:    5    charge:    4.2107    magn:   -0.0374    constr:    0.0000

     total cpu time spent up to now is       11.4 secs

     total energy              =   -1345.01924612 Ry
     Harris-Foulkes estimate   =   -1345.01924612 Ry
     estimated scf accuracy    <       0.00000004 Ry

     total magnetization       =    11.00 Bohr mag/cell
     absolute magnetization    =    11.59 Bohr mag/cell

     iteration # 14     ecut=    71.00 Ry     beta=0.70
     Davidson diagonalization with overlap
     ethr =  5.49E-11,  avg # of iterations =  3.0

     negative rho (up, down):  0.000E+00 1.393E-03
 
     Magnetic moment per site:
     atom:    1    charge:   12.8576    magn:    2.5595    constr:    0.0000
     atom:    2    charge:   12.8576    magn:    2.5595    constr:    0.0000
     atom:    3    charge:   12.8576    magn:    2.5595    constr:    0.0000
     atom:    4    charge:   12.9252    magn:    2.6133    constr:    0.0000
     atom:    5    charge:    4.2106    magn:   -0.0374    constr:    0.0000

     total cpu time spent up to now is       12.2 secs

     total energy              =   -1345.01924613 Ry
     Harris-Foulkes estimate   =   -1345.01924614 Ry
     estimated scf accuracy    <       0.00000006 Ry

     total magnetization       =    11.00 Bohr mag/cell
     absolute magnetization    =    11.59 Bohr mag/cell

     iteration # 15     ecut=    71.00 Ry     beta=0.70
     Davidson diagonalization with overlap
     ethr =  5.49E-11,  avg # of iterations =  2.0

     negative rho (up, down):  0.000E+00 1.393E-03
 
     Magnetic moment per site:
     atom:    1    charge:   12.8576    magn:    2.5595    constr:    0.0000
     atom:    2    charge:   12.8576    magn:    2.5595    constr:    0.0000
     atom:    3    charge:   12.8576    magn:    2.5595    constr:    0.0000
     atom:    4    charge:   12.9252    magn:    2.6133    constr:    0.0000
     atom:    5    charge:    4.2106    magn:   -0.0373    constr:    0.0000

     total cpu time spent up to now is       12.9 secs

     End of self-consistent calculation

 ------ SPIN UP ------------


          k = 0.0000 0.0000 0.0000 (  3407 PWs)   bands (ev):

   -69.3188 -69.2603 -69.2603 -69.0659 -35.5671 -35.5671 -35.5671 -35.3194
   -35.3194 -35.3194 -35.2875 -35.2875 -35.2875 -35.1205 -35.1205 -35.1205
     2.0523  11.1966  13.7162  13.7162  14.2934  14.2934  14.2934  14.9057
    14.9057  14.9057  16.3283  16.3283  16.3283  17.1244  17.1244  18.0329
    18.0329  18.1960  18.5595  18.5595  18.5595  18.6799  18.6799  18.6799
    22.1070  24.0330

 ------ SPIN DOWN ----------


          k = 0.0000 0.0000 0.0000 (  3407 PWs)   bands (ev):

   -66.0203 -65.9547 -65.9547 -65.7128 -32.3678 -32.3678 -32.3678 -32.0941
   -32.0941 -32.0941 -32.0716 -32.0716 -32.0716 -31.8583 -31.8583 -31.8583
     2.2964  11.7332  15.0385  15.0385  15.0385  15.4365  15.4365  16.2254
    16.2254  16.2254  18.7866  18.7866  18.7866  20.2835  20.2835  21.3454
    21.3454  21.4678  21.4678  21.4678  21.5271  21.6008  21.6008  21.6008
    24.1822  24.1822

     the Fermi energy is    19.9227 ev

!    total energy              =   -1345.01924613 Ry
     Harris-Foulkes estimate   =   -1345.01924613 Ry
     estimated scf accuracy    <          3.1E-10 Ry

     total all-electron energy =    -10291.620881 Ry

     The total energy is the sum of the following terms:

     one-electron contribution =    -449.10746659 Ry
     hartree contribution      =     272.43373413 Ry
     xc contribution           =    -117.89071893 Ry
     ewald contribution        =    -711.61403732 Ry
     one-center paw contrib.   =    -338.84075741 Ry
     smearing contrib. (-TS)   =      -0.00000000 Ry

     total magnetization       =    11.00 Bohr mag/cell
     absolute magnetization    =    11.59 Bohr mag/cell

     convergence has been achieved in  15 iterations

     Forces acting on atoms (Ry/au):


     negative rho (up, down):  0.000E+00 1.393E-03
     atom    1 type  1   force =     0.00000000    0.00000000    0.00000000
     atom    2 type  1   force =     0.00000000    0.00000000    0.00000000
     atom    3 type  1   force =     0.00000000    0.00000000    0.00000000
     atom    4 type  1   force =     0.00000000    0.00000000    0.00000000
     atom    5 type  2   force =     0.00000000    0.00000000    0.00000000

     Total force =     0.000000     Total SCF correction =     0.000000


     entering subroutine stress ...


     negative rho (up, down):  0.000E+00 1.393E-03
          total   stress  (Ry/bohr**3)                   (kbar)     P=  339.70
   0.00230921   0.00000000   0.00000000        339.70      0.00      0.00
   0.00000000   0.00230921   0.00000000          0.00    339.70      0.00
   0.00000000   0.00000000   0.00230921          0.00      0.00    339.70


     Writing output data file config.save
 
     init_run     :      0.87s CPU      1.27s WALL (       1 calls)
     electrons    :     10.83s CPU     11.19s WALL (       1 calls)
     forces       :      0.17s CPU      0.17s WALL (       1 calls)
     stress       :      0.40s CPU      0.40s WALL (       1 calls)

     Called by init_run:
     wfcinit      :      0.04s CPU      0.39s WALL (       1 calls)
     potinit      :      0.41s CPU      0.43s WALL (       1 calls)

     Called by electrons:
     c_bands      :      1.63s CPU      1.67s WALL (      15 calls)
     sum_band     :      2.18s CPU      2.20s WALL (      15 calls)
     v_of_rho     :      0.47s CPU      0.49s WALL (      16 calls)
     newd         :      0.75s CPU      0.75s WALL (      16 calls)
     mix_rho      :      0.10s CPU      0.11s WALL (      15 calls)

     Called by c_bands:
     init_us_2    :      0.03s CPU      0.03s WALL (      66 calls)
     cegterg      :      1.52s CPU      1.55s WALL (      30 calls)

     Called by sum_band:
     sum_band:bec :      0.00s CPU      0.00s WALL (      30 calls)
     addusdens    :      1.86s CPU      1.87s WALL (      15 calls)

     Called by *egterg:
     h_psi        :      0.92s CPU      0.94s WALL (     112 calls)
     s_psi        :      0.04s CPU      0.04s WALL (     112 calls)
     g_psi        :      0.01s CPU      0.01s WALL (      80 calls)
     cdiaghg      :      0.28s CPU      0.29s WALL (     110 calls)

     Called by h_psi:
     add_vuspsi   :      0.04s CPU      0.04s WALL (     112 calls)

     General routines
     calbec       :      0.09s CPU      0.09s WALL (     152 calls)
     fft          :      0.26s CPU      0.27s WALL (     530 calls)
     ffts         :      0.01s CPU      0.01s WALL (      62 calls)
     fftw         :      0.81s CPU      0.82s WALL (    7118 calls)
     interpolate  :      0.06s CPU      0.06s WALL (      62 calls)
     davcio       :      0.00s CPU      0.04s WALL (       2 calls)
 
     Parallel routines
     fft_scatter  :      0.44s CPU      0.45s WALL (    7710 calls)

     PAW routines
     PAW_pot      :      6.06s CPU      6.28s WALL (      16 calls)
     PAW_symme    :      0.02s CPU      0.02s WALL (      31 calls)
 
     PWSCF        :    12.71s CPU        13.59s WALL

 
   This run was terminated on:  20:18:59  26Oct2020            

=------------------------------------------------------------------------------=
   JOB DONE.
=------------------------------------------------------------------------------=
