
     Program PWSCF v.5.2.0 starts on 26Oct2020 at 20:20:10 

     This program is part of the open-source Quantum ESPRESSO suite
     for quantum simulation of materials; please cite
         "P. Giannozzi et al., J. Phys.:Condens. Matter 21 395502 (2009);
          URL http://www.quantum-espresso.org", 
     in publications or presentations arising from this work. More details at
     http://www.quantum-espresso.org/quote

     Parallel version (MPI), running on     6 processors
     R & G space division:  proc/nbgrp/npool/nimage =       6
     Reading input from 3.in

     Current dimensions of program PWSCF are:
     Max number of different atomic species (ntypx) = 10
     Max number of k-points (npk) =  40000
     Max angular momentum in pseudopotentials (lmaxx) =  3

     IMPORTANT: XC functional enforced from input :
     Exchange-correlation      = PBE ( 1  4  3  4 0 0)
     Any further DFT definition will be discarded
     Please, verify this is what you really want

               file Fe_PSEUDO: wavefunction(s)  3P 3D renormalized
               file N_PSEUDO: wavefunction(s)  2S renormalized

     Subspace diagonalization in iterative solution of the eigenvalue problem:
     a serial algorithm will be used

 
     Parallelization info
     --------------------
     sticks:   dense  smooth     PW     G-vecs:    dense   smooth      PW
     Min         316     182     50                10419     4506     659
     Max         318     183     51                10422     4523     660
     Sum        1901    1093    301                62525    27081    3959
 
     Generating pointlists ...
     new r_m :   0.2063 (alat units)  1.4318 (a.u.) for type    1
     new r_m :   0.2063 (alat units)  1.4318 (a.u.) for type    2


     bravais-lattice index     =            0
     lattice parameter (alat)  =       6.9422  a.u.
     unit-cell volume          =     334.5777 (a.u.)^3
     number of atoms/cell      =            5
     number of atomic types    =            2
     number of electrons       =        69.00
     number of Kohn-Sham states=           42
     kinetic-energy cutoff     =      71.0000  Ry
     charge density cutoff     =     496.0000  Ry
     convergence threshold     =      1.0E-08
     mixing beta               =       0.7000
     number of iterations used =            8  plain     mixing
     Exchange-correlation      = PBE ( 1  4  3  4 0 0)

     celldm(1)=   6.942230  celldm(2)=   0.000000  celldm(3)=   0.000000
     celldm(4)=   0.000000  celldm(5)=   0.000000  celldm(6)=   0.000000

     crystal axes: (cart. coord. in units of alat)
               a(1) = (   1.000000   0.000000   0.000000 )  
               a(2) = (   0.000000   1.000000   0.000000 )  
               a(3) = (   0.000000   0.000000   1.000000 )  

     reciprocal axes: (cart. coord. in units 2 pi/alat)
               b(1) = (  1.000000  0.000000  0.000000 )  
               b(2) = (  0.000000  1.000000  0.000000 )  
               b(3) = (  0.000000  0.000000  1.000000 )  


     PseudoPot. # 1 for Fe read from file:
     pseudo/Fe_PSEUDO
     MD5 check sum: e30d5f36a6f0cb983ee41abee56170da
     Pseudo is Projector augmented-wave + core cor, Zval = 16.0
     Generated using "atomic" code by A. Dal Corso  v.6.3
     Shape of augmentation charge: PSQ
     Using radial grid of 1191 points,  6 beta functions with: 
                l(1) =   0
                l(2) =   0
                l(3) =   1
                l(4) =   1
                l(5) =   2
                l(6) =   2
     Q(r) pseudized with 0 coefficients 


     PseudoPot. # 2 for  N read from file:
     pseudo/N_PSEUDO
     MD5 check sum: 14c48229446f9f2d411169a3abcbc3fa
     Pseudo is Projector augmented-wave + core cor, Zval =  5.0
     Generated using "atomic" code by A. Dal Corso  v.6.3
     Shape of augmentation charge: PSQ
     Using radial grid of 1085 points,  4 beta functions with: 
                l(1) =   0
                l(2) =   0
                l(3) =   1
                l(4) =   1
     Q(r) pseudized with 0 coefficients 


     atomic species   valence    mass     pseudopotential
        Fe            16.00    55.84500     Fe( 1.00)
        N              5.00    14.00650      N( 1.00)

     Starting magnetic structure 
     atomic species   magnetization
        Fe           0.500
        N           -0.010

     48 Sym. Ops., with inversion, found



   Cartesian axes

     site n.     atom                  positions (alat units)
         1           Fe  tau(   1) = (   0.0000000   0.5000000   0.5000000  )
         2           Fe  tau(   2) = (   0.5000000   0.5000000   0.0000000  )
         3           Fe  tau(   3) = (   0.5000000   0.0000000   0.5000000  )
         4           Fe  tau(   4) = (   0.0000000   0.0000000   0.0000000  )
         5           N   tau(   5) = (   0.5000000   0.5000000   0.5000000  )

     number of k points=     8  Marzari-Vanderbilt smearing, width (Ry)=  0.0050
                       cart. coord. in units 2pi/alat
        k(    1) = (   0.0000000   0.0000000   0.0000000), wk =   0.0370370
        k(    2) = (   0.0000000   0.0000000   0.3333333), wk =   0.2222222
        k(    3) = (   0.0000000   0.3333333   0.3333333), wk =   0.4444444
        k(    4) = (   0.3333333   0.3333333   0.3333333), wk =   0.2962963
        k(    5) = (   0.0000000   0.0000000   0.0000000), wk =   0.0370370
        k(    6) = (   0.0000000   0.0000000   0.3333333), wk =   0.2222222
        k(    7) = (   0.0000000   0.3333333   0.3333333), wk =   0.4444444
        k(    8) = (   0.3333333   0.3333333   0.3333333), wk =   0.2962963

     Dense  grid:    62525 G-vectors     FFT dimensions: (  50,  50,  50)

     Smooth grid:    27081 G-vectors     FFT dimensions: (  40,  40,  40)

     Largest allocated arrays     est. size (Mb)     dimensions
        Kohn-Sham Wavefunctions         0.36 Mb     (     568,   42)
        NL pseudopotentials             0.69 Mb     (     568,   80)
        Each V/rho on FFT grid          0.69 Mb     (   22500,   2)
        Each G-vector array             0.08 Mb     (   10422)
        G-vector shells                 0.00 Mb     (     494)
     Largest temporary arrays     est. size (Mb)     dimensions
        Auxiliary wavefunctions         1.46 Mb     (     568,  168)
        Each subspace H/S matrix        0.43 Mb     (     168,  168)
        Each <psi_i|beta_j> matrix      0.05 Mb     (      80,   42)
        Arrays for rho mixing           2.75 Mb     (   22500,    8)

     Check: negative/imaginary core charge=   -0.000002    0.000000

     Initial potential from superposition of free atoms

     starting charge   68.99837, renormalised to   69.00000
     Starting wfc are   44 randomized atomic wfcs
     Checking if some PAW data can be deallocated... 

     total cpu time spent up to now is        1.6 secs

     per-process dynamical memory:    30.7 Mb

     Self-consistent Calculation

     iteration #  1     ecut=    71.00 Ry     beta=0.70
     Davidson diagonalization with overlap
     ethr =  1.00E-02,  avg # of iterations =  4.0

     negative rho (up, down):  0.000E+00 1.055E-03
 
     Magnetic moment per site:
     atom:    1    charge:   12.7096    magn:    4.1209    constr:    0.0000
     atom:    2    charge:   12.7096    magn:    4.1209    constr:    0.0000
     atom:    3    charge:   12.7096    magn:    4.1209    constr:    0.0000
     atom:    4    charge:   12.6428    magn:    4.1541    constr:    0.0000
     atom:    5    charge:    4.6295    magn:    0.1143    constr:    0.0000

     total cpu time spent up to now is        2.8 secs

     total energy              =   -1344.12668542 Ry
     Harris-Foulkes estimate   =   -1343.42160003 Ry
     estimated scf accuracy    <       2.81800166 Ry

     total magnetization       =    14.04 Bohr mag/cell
     absolute magnetization    =    14.17 Bohr mag/cell

     iteration #  2     ecut=    71.00 Ry     beta=0.70
     Davidson diagonalization with overlap
     ethr =  4.08E-03,  avg # of iterations =  3.0

     negative rho (up, down):  0.000E+00 8.825E-04
 
     Magnetic moment per site:
     atom:    1    charge:   12.7477    magn:    3.7651    constr:    0.0000
     atom:    2    charge:   12.7477    magn:    3.7651    constr:    0.0000
     atom:    3    charge:   12.7477    magn:    3.7651    constr:    0.0000
     atom:    4    charge:   13.0411    magn:    3.5620    constr:    0.0000
     atom:    5    charge:    4.1514    magn:    0.0309    constr:    0.0000

     total cpu time spent up to now is        3.9 secs

     total energy              =   -1343.50104026 Ry
     Harris-Foulkes estimate   =   -1345.53915547 Ry
     estimated scf accuracy    <       6.58253123 Ry

     total magnetization       =     9.22 Bohr mag/cell
     absolute magnetization    =    10.49 Bohr mag/cell

     iteration #  3     ecut=    71.00 Ry     beta=0.70
     Davidson diagonalization with overlap
     ethr =  4.08E-03,  avg # of iterations =  3.2

     negative rho (up, down):  0.000E+00 7.240E-04
 
     Magnetic moment per site:
     atom:    1    charge:   12.8859    magn:    3.4537    constr:    0.0000
     atom:    2    charge:   12.8859    magn:    3.4537    constr:    0.0000
     atom:    3    charge:   12.8859    magn:    3.4537    constr:    0.0000
     atom:    4    charge:   12.7840    magn:    3.1335    constr:    0.0000
     atom:    5    charge:    4.0163    magn:    0.0048    constr:    0.0000

     total cpu time spent up to now is        5.1 secs

     total energy              =   -1343.65848807 Ry
     Harris-Foulkes estimate   =   -1345.95943365 Ry
     estimated scf accuracy    <      22.31365043 Ry

     total magnetization       =     4.56 Bohr mag/cell
     absolute magnetization    =     5.09 Bohr mag/cell

     iteration #  4     ecut=    71.00 Ry     beta=0.70
     Davidson diagonalization with overlap
     ethr =  4.08E-03,  avg # of iterations =  3.1

     negative rho (up, down):  0.000E+00 1.190E-03
 
     Magnetic moment per site:
     atom:    1    charge:   12.7842    magn:    2.2206    constr:    0.0000
     atom:    2    charge:   12.7842    magn:    2.2206    constr:    0.0000
     atom:    3    charge:   12.7842    magn:    2.2206    constr:    0.0000
     atom:    4    charge:   12.7312    magn:    1.7775    constr:    0.0000
     atom:    5    charge:    4.0579    magn:   -0.0699    constr:    0.0000

     total cpu time spent up to now is        6.3 secs

     total energy              =   -1344.97785962 Ry
     Harris-Foulkes estimate   =   -1345.08301773 Ry
     estimated scf accuracy    <       0.68775984 Ry

     total magnetization       =    11.00 Bohr mag/cell
     absolute magnetization    =    11.40 Bohr mag/cell

     iteration #  5     ecut=    71.00 Ry     beta=0.70
     Davidson diagonalization with overlap
     ethr =  9.97E-04,  avg # of iterations =  3.4

     negative rho (up, down):  0.000E+00 9.780E-04
 
     Magnetic moment per site:
     atom:    1    charge:   12.8341    magn:    2.1310    constr:    0.0000
     atom:    2    charge:   12.8341    magn:    2.1310    constr:    0.0000
     atom:    3    charge:   12.8341    magn:    2.1310    constr:    0.0000
     atom:    4    charge:   12.8027    magn:    1.9103    constr:    0.0000
     atom:    5    charge:    4.1168    magn:   -0.0298    constr:    0.0000

     total cpu time spent up to now is        7.5 secs

     total energy              =   -1345.08815434 Ry
     Harris-Foulkes estimate   =   -1345.15582785 Ry
     estimated scf accuracy    <       0.17057936 Ry

     total magnetization       =     9.41 Bohr mag/cell
     absolute magnetization    =     9.80 Bohr mag/cell

     iteration #  6     ecut=    71.00 Ry     beta=0.70
     Davidson diagonalization with overlap
     ethr =  2.47E-04,  avg # of iterations =  3.0

     negative rho (up, down):  0.000E+00 8.711E-04
 
     Magnetic moment per site:
     atom:    1    charge:   12.8293    magn:    2.0395    constr:    0.0000
     atom:    2    charge:   12.8293    magn:    2.0395    constr:    0.0000
     atom:    3    charge:   12.8293    magn:    2.0395    constr:    0.0000
     atom:    4    charge:   12.8025    magn:    2.0377    constr:    0.0000
     atom:    5    charge:    4.1158    magn:   -0.0087    constr:    0.0000

     total cpu time spent up to now is        8.6 secs

     total energy              =   -1345.12752510 Ry
     Harris-Foulkes estimate   =   -1345.12318847 Ry
     estimated scf accuracy    <       0.01832296 Ry

     total magnetization       =     8.64 Bohr mag/cell
     absolute magnetization    =     9.10 Bohr mag/cell

     iteration #  7     ecut=    71.00 Ry     beta=0.70
     Davidson diagonalization with overlap
     ethr =  2.66E-05,  avg # of iterations =  1.1

     negative rho (up, down):  0.000E+00 8.699E-04
 
     Magnetic moment per site:
     atom:    1    charge:   12.8293    magn:    2.0381    constr:    0.0000
     atom:    2    charge:   12.8293    magn:    2.0381    constr:    0.0000
     atom:    3    charge:   12.8293    magn:    2.0381    constr:    0.0000
     atom:    4    charge:   12.8024    magn:    2.0400    constr:    0.0000
     atom:    5    charge:    4.1157    magn:   -0.0089    constr:    0.0000

     total cpu time spent up to now is        9.6 secs

     total energy              =   -1345.12919678 Ry
     Harris-Foulkes estimate   =   -1345.12910494 Ry
     estimated scf accuracy    <       0.01983878 Ry

     total magnetization       =     8.36 Bohr mag/cell
     absolute magnetization    =     8.83 Bohr mag/cell

     iteration #  8     ecut=    71.00 Ry     beta=0.70
     Davidson diagonalization with overlap
     ethr =  2.66E-05,  avg # of iterations =  1.0

     negative rho (up, down):  0.000E+00 8.286E-04
 
     Magnetic moment per site:
     atom:    1    charge:   12.8218    magn:    2.1048    constr:    0.0000
     atom:    2    charge:   12.8218    magn:    2.1048    constr:    0.0000
     atom:    3    charge:   12.8218    magn:    2.1048    constr:    0.0000
     atom:    4    charge:   12.7907    magn:    1.9308    constr:    0.0000
     atom:    5    charge:    4.1256    magn:   -0.0113    constr:    0.0000

     total cpu time spent up to now is       10.7 secs

     total energy              =   -1345.12444564 Ry
     Harris-Foulkes estimate   =   -1345.12924848 Ry
     estimated scf accuracy    <       0.01975889 Ry

     total magnetization       =     8.36 Bohr mag/cell
     absolute magnetization    =     8.83 Bohr mag/cell

     iteration #  9     ecut=    71.00 Ry     beta=0.70
     Davidson diagonalization with overlap
     ethr =  2.66E-05,  avg # of iterations =  1.0

     negative rho (up, down):  0.000E+00 1.581E-03
 
     Magnetic moment per site:
     atom:    1    charge:   12.9311    magn:    1.2820    constr:    0.0000
     atom:    2    charge:   12.9311    magn:    1.2820    constr:    0.0000
     atom:    3    charge:   12.9311    magn:    1.2820    constr:    0.0000
     atom:    4    charge:   12.9301    magn:    3.2783    constr:    0.0000
     atom:    5    charge:    4.0009    magn:   -0.0888    constr:    0.0000

     total cpu time spent up to now is       11.8 secs

     total energy              =   -1345.10600070 Ry
     Harris-Foulkes estimate   =   -1345.12503384 Ry
     estimated scf accuracy    <       0.02132801 Ry

     total magnetization       =     8.45 Bohr mag/cell
     absolute magnetization    =     8.91 Bohr mag/cell

     iteration # 10     ecut=    71.00 Ry     beta=0.70
     Davidson diagonalization with overlap
     ethr =  2.66E-05,  avg # of iterations =  3.5

     negative rho (up, down):  0.000E+00 1.492E-03
 
     Magnetic moment per site:
     atom:    1    charge:   12.9295    magn:    1.1453    constr:    0.0000
     atom:    2    charge:   12.9295    magn:    1.1453    constr:    0.0000
     atom:    3    charge:   12.9295    magn:    1.1453    constr:    0.0000
     atom:    4    charge:   12.9227    magn:    3.4822    constr:    0.0000
     atom:    5    charge:    4.0090    magn:   -0.0537    constr:    0.0000

     total cpu time spent up to now is       13.3 secs

     total energy              =   -1345.16283795 Ry
     Harris-Foulkes estimate   =   -1345.18031868 Ry
     estimated scf accuracy    <       0.26006771 Ry

     total magnetization       =     8.07 Bohr mag/cell
     absolute magnetization    =     8.39 Bohr mag/cell

     iteration # 11     ecut=    71.00 Ry     beta=0.70
     Davidson diagonalization with overlap
     ethr =  2.66E-05,  avg # of iterations =  1.8

     negative rho (up, down):  0.000E+00 1.055E-03
 
     Magnetic moment per site:
     atom:    1    charge:   12.9102    magn:    1.0225    constr:    0.0000
     atom:    2    charge:   12.9102    magn:    1.0225    constr:    0.0000
     atom:    3    charge:   12.9102    magn:    1.0225    constr:    0.0000
     atom:    4    charge:   12.8894    magn:    3.3907    constr:    0.0000
     atom:    5    charge:    4.0298    magn:   -0.0213    constr:    0.0000

     total cpu time spent up to now is       14.5 secs

     total energy              =   -1345.14903755 Ry
     Harris-Foulkes estimate   =   -1345.16535217 Ry
     estimated scf accuracy    <       0.18155622 Ry

     total magnetization       =     7.44 Bohr mag/cell
     absolute magnetization    =     7.74 Bohr mag/cell

     iteration # 12     ecut=    71.00 Ry     beta=0.70
     Davidson diagonalization with overlap
     ethr =  2.66E-05,  avg # of iterations =  1.9

     negative rho (up, down):  0.000E+00 9.292E-04
 
     Magnetic moment per site:
     atom:    1    charge:   12.9018    magn:    1.0354    constr:    0.0000
     atom:    2    charge:   12.9018    magn:    1.0354    constr:    0.0000
     atom:    3    charge:   12.9018    magn:    1.0354    constr:    0.0000
     atom:    4    charge:   12.8783    magn:    3.2050    constr:    0.0000
     atom:    5    charge:    4.0387    magn:   -0.0105    constr:    0.0000

     total cpu time spent up to now is       15.6 secs

     total energy              =   -1345.14940930 Ry
     Harris-Foulkes estimate   =   -1345.15188676 Ry
     estimated scf accuracy    <       0.10826712 Ry

     total magnetization       =     6.88 Bohr mag/cell
     absolute magnetization    =     7.17 Bohr mag/cell

     iteration # 13     ecut=    71.00 Ry     beta=0.70
     Davidson diagonalization with overlap
     ethr =  2.66E-05,  avg # of iterations =  1.0

     negative rho (up, down):  0.000E+00 7.249E-04
 
     Magnetic moment per site:
     atom:    1    charge:   12.9038    magn:    0.8415    constr:    0.0000
     atom:    2    charge:   12.9038    magn:    0.8415    constr:    0.0000
     atom:    3    charge:   12.9038    magn:    0.8415    constr:    0.0000
     atom:    4    charge:   12.8783    magn:    3.2544    constr:    0.0000
     atom:    5    charge:    4.0285    magn:   -0.0173    constr:    0.0000

     total cpu time spent up to now is       16.7 secs

     total energy              =   -1345.14691257 Ry
     Harris-Foulkes estimate   =   -1345.14998018 Ry
     estimated scf accuracy    <       0.07652735 Ry

     total magnetization       =     6.73 Bohr mag/cell
     absolute magnetization    =     7.03 Bohr mag/cell

     iteration # 14     ecut=    71.00 Ry     beta=0.70
     Davidson diagonalization with overlap
     ethr =  2.66E-05,  avg # of iterations =  1.0

     negative rho (up, down):  0.000E+00 4.719E-04
 
     Magnetic moment per site:
     atom:    1    charge:   12.8725    magn:    0.7976    constr:    0.0000
     atom:    2    charge:   12.8725    magn:    0.7976    constr:    0.0000
     atom:    3    charge:   12.8725    magn:    0.7976    constr:    0.0000
     atom:    4    charge:   12.8311    magn:    2.9367    constr:    0.0000
     atom:    5    charge:    4.0592    magn:    0.0188    constr:    0.0000

     total cpu time spent up to now is       17.8 secs

     total energy              =   -1345.13532249 Ry
     Harris-Foulkes estimate   =   -1345.14987219 Ry
     estimated scf accuracy    <       0.09054054 Ry

     total magnetization       =     6.40 Bohr mag/cell
     absolute magnetization    =     6.64 Bohr mag/cell

     iteration # 15     ecut=    71.00 Ry     beta=0.70
     Davidson diagonalization with overlap
     ethr =  2.66E-05,  avg # of iterations =  2.2

     negative rho (up, down):  0.000E+00 4.215E-04
 
     Magnetic moment per site:
     atom:    1    charge:   12.8601    magn:    0.9603    constr:    0.0000
     atom:    2    charge:   12.8601    magn:    0.9603    constr:    0.0000
     atom:    3    charge:   12.8601    magn:    0.9603    constr:    0.0000
     atom:    4    charge:   12.8114    magn:    2.8227    constr:    0.0000
     atom:    5    charge:    4.0741    magn:    0.0324    constr:    0.0000

     total cpu time spent up to now is       18.9 secs

     total energy              =   -1345.13728747 Ry
     Harris-Foulkes estimate   =   -1345.13826661 Ry
     estimated scf accuracy    <       0.04156091 Ry

     total magnetization       =     6.41 Bohr mag/cell
     absolute magnetization    =     6.61 Bohr mag/cell

     iteration # 16     ecut=    71.00 Ry     beta=0.70
     Davidson diagonalization with overlap
     ethr =  2.66E-05,  avg # of iterations =  1.4

     negative rho (up, down):  0.000E+00 3.021E-04
 
     Magnetic moment per site:
     atom:    1    charge:   12.8341    magn:    1.1089    constr:    0.0000
     atom:    2    charge:   12.8341    magn:    1.1089    constr:    0.0000
     atom:    3    charge:   12.8341    magn:    1.1089    constr:    0.0000
     atom:    4    charge:   12.7722    magn:    2.5560    constr:    0.0000
     atom:    5    charge:    4.0998    magn:    0.0517    constr:    0.0000

     total cpu time spent up to now is       20.0 secs

     total energy              =   -1345.13500433 Ry
     Harris-Foulkes estimate   =   -1345.13881049 Ry
     estimated scf accuracy    <       0.01526628 Ry

     total magnetization       =     6.40 Bohr mag/cell
     absolute magnetization    =     6.65 Bohr mag/cell

     iteration # 17     ecut=    71.00 Ry     beta=0.70
     Davidson diagonalization with overlap
     ethr =  2.21E-05,  avg # of iterations =  2.0

     negative rho (up, down):  0.000E+00 3.198E-04
 
     Magnetic moment per site:
     atom:    1    charge:   12.8434    magn:    1.1338    constr:    0.0000
     atom:    2    charge:   12.8434    magn:    1.1338    constr:    0.0000
     atom:    3    charge:   12.8434    magn:    1.1338    constr:    0.0000
     atom:    4    charge:   12.7685    magn:    2.6381    constr:    0.0000
     atom:    5    charge:    4.0819    magn:    0.0304    constr:    0.0000

     total cpu time spent up to now is       21.1 secs

     total energy              =   -1345.13715125 Ry
     Harris-Foulkes estimate   =   -1345.13899697 Ry
     estimated scf accuracy    <       0.00842491 Ry

     total magnetization       =     6.30 Bohr mag/cell
     absolute magnetization    =     6.60 Bohr mag/cell

     iteration # 18     ecut=    71.00 Ry     beta=0.70
     Davidson diagonalization with overlap
     ethr =  1.22E-05,  avg # of iterations =  2.5

     negative rho (up, down):  0.000E+00 3.083E-04
 
     Magnetic moment per site:
     atom:    1    charge:   12.8387    magn:    1.0185    constr:    0.0000
     atom:    2    charge:   12.8387    magn:    1.0185    constr:    0.0000
     atom:    3    charge:   12.8387    magn:    1.0185    constr:    0.0000
     atom:    4    charge:   12.7715    magn:    2.6201    constr:    0.0000
     atom:    5    charge:    4.0834    magn:    0.0215    constr:    0.0000

     total cpu time spent up to now is       22.3 secs

     total energy              =   -1345.13709161 Ry
     Harris-Foulkes estimate   =   -1345.13931044 Ry
     estimated scf accuracy    <       0.01258606 Ry

     total magnetization       =     6.28 Bohr mag/cell
     absolute magnetization    =     6.59 Bohr mag/cell

     iteration # 19     ecut=    71.00 Ry     beta=0.70
     Davidson diagonalization with overlap
     ethr =  1.22E-05,  avg # of iterations =  1.8

     negative rho (up, down):  0.000E+00 3.065E-04
 
     Magnetic moment per site:
     atom:    1    charge:   12.8371    magn:    1.0155    constr:    0.0000
     atom:    2    charge:   12.8371    magn:    1.0155    constr:    0.0000
     atom:    3    charge:   12.8371    magn:    1.0155    constr:    0.0000
     atom:    4    charge:   12.7695    magn:    2.6226    constr:    0.0000
     atom:    5    charge:    4.0904    magn:    0.0216    constr:    0.0000

     total cpu time spent up to now is       23.3 secs

     total energy              =   -1345.13809970 Ry
     Harris-Foulkes estimate   =   -1345.13863336 Ry
     estimated scf accuracy    <       0.01479790 Ry

     total magnetization       =     6.40 Bohr mag/cell
     absolute magnetization    =     6.66 Bohr mag/cell

     iteration # 20     ecut=    71.00 Ry     beta=0.70
     Davidson diagonalization with overlap
     ethr =  1.22E-05,  avg # of iterations =  1.0

     negative rho (up, down):  0.000E+00 2.936E-04
 
     Magnetic moment per site:
     atom:    1    charge:   12.8377    magn:    1.1622    constr:    0.0000
     atom:    2    charge:   12.8377    magn:    1.1622    constr:    0.0000
     atom:    3    charge:   12.8377    magn:    1.1622    constr:    0.0000
     atom:    4    charge:   12.7708    magn:    2.5899    constr:    0.0000
     atom:    5    charge:    4.0925    magn:    0.0128    constr:    0.0000

     total cpu time spent up to now is       24.3 secs

     total energy              =   -1345.13859410 Ry
     Harris-Foulkes estimate   =   -1345.13830337 Ry
     estimated scf accuracy    <       0.00716159 Ry

     total magnetization       =     6.40 Bohr mag/cell
     absolute magnetization    =     6.66 Bohr mag/cell

     iteration # 21     ecut=    71.00 Ry     beta=0.70
     Davidson diagonalization with overlap
     ethr =  1.04E-05,  avg # of iterations =  1.2

     negative rho (up, down):  0.000E+00 3.042E-04
 
     Magnetic moment per site:
     atom:    1    charge:   12.8383    magn:    1.1289    constr:    0.0000
     atom:    2    charge:   12.8383    magn:    1.1289    constr:    0.0000
     atom:    3    charge:   12.8383    magn:    1.1289    constr:    0.0000
     atom:    4    charge:   12.7694    magn:    2.6217    constr:    0.0000
     atom:    5    charge:    4.0908    magn:    0.0150    constr:    0.0000

     total cpu time spent up to now is       25.4 secs

     total energy              =   -1345.13881754 Ry
     Harris-Foulkes estimate   =   -1345.13906504 Ry
     estimated scf accuracy    <       0.00566478 Ry

     total magnetization       =     6.40 Bohr mag/cell
     absolute magnetization    =     6.70 Bohr mag/cell

     iteration # 22     ecut=    71.00 Ry     beta=0.70
     Davidson diagonalization with overlap
     ethr =  8.21E-06,  avg # of iterations =  1.0

     negative rho (up, down):  0.000E+00 3.069E-04
 
     Magnetic moment per site:
     atom:    1    charge:   12.8384    magn:    1.1166    constr:    0.0000
     atom:    2    charge:   12.8384    magn:    1.1166    constr:    0.0000
     atom:    3    charge:   12.8384    magn:    1.1166    constr:    0.0000
     atom:    4    charge:   12.7696    magn:    2.6296    constr:    0.0000
     atom:    5    charge:    4.0905    magn:    0.0154    constr:    0.0000

     total cpu time spent up to now is       26.4 secs

     total energy              =   -1345.13895916 Ry
     Harris-Foulkes estimate   =   -1345.13892934 Ry
     estimated scf accuracy    <       0.00358244 Ry

     total magnetization       =     6.34 Bohr mag/cell
     absolute magnetization    =     6.64 Bohr mag/cell

     iteration # 23     ecut=    71.00 Ry     beta=0.70
     Davidson diagonalization with overlap
     ethr =  5.19E-06,  avg # of iterations =  1.0

     negative rho (up, down):  0.000E+00 3.042E-04
 
     Magnetic moment per site:
     atom:    1    charge:   12.8389    magn:    1.1792    constr:    0.0000
     atom:    2    charge:   12.8389    magn:    1.1792    constr:    0.0000
     atom:    3    charge:   12.8389    magn:    1.1792    constr:    0.0000
     atom:    4    charge:   12.7706    magn:    2.6260    constr:    0.0000
     atom:    5    charge:    4.0932    magn:    0.0153    constr:    0.0000

     total cpu time spent up to now is       27.4 secs

     total energy              =   -1345.13842445 Ry
     Harris-Foulkes estimate   =   -1345.13897817 Ry
     estimated scf accuracy    <       0.00482288 Ry

     total magnetization       =     6.33 Bohr mag/cell
     absolute magnetization    =     6.63 Bohr mag/cell

     iteration # 24     ecut=    71.00 Ry     beta=0.70
     Davidson diagonalization with overlap
     ethr =  5.19E-06,  avg # of iterations =  1.0

     negative rho (up, down):  0.000E+00 2.468E-04
 
     Magnetic moment per site:
     atom:    1    charge:   12.8344    magn:    1.1139    constr:    0.0000
     atom:    2    charge:   12.8344    magn:    1.1139    constr:    0.0000
     atom:    3    charge:   12.8344    magn:    1.1139    constr:    0.0000
     atom:    4    charge:   12.7609    magn:    2.4230    constr:    0.0000
     atom:    5    charge:    4.0874    magn:    0.0103    constr:    0.0000

     total cpu time spent up to now is       28.5 secs

     total energy              =   -1345.13805275 Ry
     Harris-Foulkes estimate   =   -1345.13869196 Ry
     estimated scf accuracy    <       0.00249985 Ry

     total magnetization       =     6.50 Bohr mag/cell
     absolute magnetization    =     6.81 Bohr mag/cell

     iteration # 25     ecut=    71.00 Ry     beta=0.70
     Davidson diagonalization with overlap
     ethr =  3.62E-06,  avg # of iterations =  2.0

     negative rho (up, down):  0.000E+00 2.290E-04
 
     Magnetic moment per site:
     atom:    1    charge:   12.8351    magn:    1.1928    constr:    0.0000
     atom:    2    charge:   12.8351    magn:    1.1928    constr:    0.0000
     atom:    3    charge:   12.8351    magn:    1.1928    constr:    0.0000
     atom:    4    charge:   12.7647    magn:    2.3550    constr:    0.0000
     atom:    5    charge:    4.0892    magn:    0.0117    constr:    0.0000

     total cpu time spent up to now is       29.5 secs

     total energy              =   -1345.13948361 Ry
     Harris-Foulkes estimate   =   -1345.13954606 Ry
     estimated scf accuracy    <       0.00068277 Ry

     total magnetization       =     6.37 Bohr mag/cell
     absolute magnetization    =     6.66 Bohr mag/cell

     iteration # 26     ecut=    71.00 Ry     beta=0.70
     Davidson diagonalization with overlap
     ethr =  9.90E-07,  avg # of iterations =  3.0

     negative rho (up, down):  0.000E+00 2.313E-04
 
     Magnetic moment per site:
     atom:    1    charge:   12.8344    magn:    1.1893    constr:    0.0000
     atom:    2    charge:   12.8344    magn:    1.1893    constr:    0.0000
     atom:    3    charge:   12.8344    magn:    1.1893    constr:    0.0000
     atom:    4    charge:   12.7639    magn:    2.3595    constr:    0.0000
     atom:    5    charge:    4.0894    magn:    0.0133    constr:    0.0000

     total cpu time spent up to now is       30.7 secs

     total energy              =   -1345.13974473 Ry
     Harris-Foulkes estimate   =   -1345.13976773 Ry
     estimated scf accuracy    <       0.00035378 Ry

     total magnetization       =     6.31 Bohr mag/cell
     absolute magnetization    =     6.63 Bohr mag/cell

     iteration # 27     ecut=    71.00 Ry     beta=0.70
     Davidson diagonalization with overlap
     ethr =  5.13E-07,  avg # of iterations =  1.0

     negative rho (up, down):  0.000E+00 2.210E-04
 
     Magnetic moment per site:
     atom:    1    charge:   12.8340    magn:    1.1924    constr:    0.0000
     atom:    2    charge:   12.8340    magn:    1.1924    constr:    0.0000
     atom:    3    charge:   12.8340    magn:    1.1924    constr:    0.0000
     atom:    4    charge:   12.7645    magn:    2.3243    constr:    0.0000
     atom:    5    charge:    4.0902    magn:    0.0172    constr:    0.0000

     total cpu time spent up to now is       31.7 secs

     total energy              =   -1345.13976997 Ry
     Harris-Foulkes estimate   =   -1345.13975863 Ry
     estimated scf accuracy    <       0.00017735 Ry

     total magnetization       =     6.30 Bohr mag/cell
     absolute magnetization    =     6.62 Bohr mag/cell

     iteration # 28     ecut=    71.00 Ry     beta=0.70
     Davidson diagonalization with overlap
     ethr =  2.57E-07,  avg # of iterations =  1.9

     negative rho (up, down):  0.000E+00 2.193E-04
 
     Magnetic moment per site:
     atom:    1    charge:   12.8342    magn:    1.1898    constr:    0.0000
     atom:    2    charge:   12.8342    magn:    1.1898    constr:    0.0000
     atom:    3    charge:   12.8342    magn:    1.1898    constr:    0.0000
     atom:    4    charge:   12.7648    magn:    2.3198    constr:    0.0000
     atom:    5    charge:    4.0898    magn:    0.0177    constr:    0.0000

     total cpu time spent up to now is       32.9 secs

     total energy              =   -1345.13980866 Ry
     Harris-Foulkes estimate   =   -1345.13980730 Ry
     estimated scf accuracy    <       0.00007781 Ry

     total magnetization       =     6.31 Bohr mag/cell
     absolute magnetization    =     6.63 Bohr mag/cell

     iteration # 29     ecut=    71.00 Ry     beta=0.70
     Davidson diagonalization with overlap
     ethr =  1.13E-07,  avg # of iterations =  1.0

     negative rho (up, down):  0.000E+00 2.205E-04
 
     Magnetic moment per site:
     atom:    1    charge:   12.8344    magn:    1.1801    constr:    0.0000
     atom:    2    charge:   12.8344    magn:    1.1801    constr:    0.0000
     atom:    3    charge:   12.8344    magn:    1.1801    constr:    0.0000
     atom:    4    charge:   12.7649    magn:    2.3258    constr:    0.0000
     atom:    5    charge:    4.0896    magn:    0.0173    constr:    0.0000

     total cpu time spent up to now is       34.0 secs

     total energy              =   -1345.13981478 Ry
     Harris-Foulkes estimate   =   -1345.13981127 Ry
     estimated scf accuracy    <       0.00002688 Ry

     total magnetization       =     6.31 Bohr mag/cell
     absolute magnetization    =     6.62 Bohr mag/cell

     iteration # 30     ecut=    71.00 Ry     beta=0.70
     Davidson diagonalization with overlap
     ethr =  3.90E-08,  avg # of iterations =  1.8

     negative rho (up, down):  0.000E+00 2.207E-04
 
     Magnetic moment per site:
     atom:    1    charge:   12.8344    magn:    1.1820    constr:    0.0000
     atom:    2    charge:   12.8344    magn:    1.1820    constr:    0.0000
     atom:    3    charge:   12.8344    magn:    1.1820    constr:    0.0000
     atom:    4    charge:   12.7649    magn:    2.3263    constr:    0.0000
     atom:    5    charge:    4.0897    magn:    0.0175    constr:    0.0000

     total cpu time spent up to now is       35.1 secs

     total energy              =   -1345.13982129 Ry
     Harris-Foulkes estimate   =   -1345.13982476 Ry
     estimated scf accuracy    <       0.00001673 Ry

     total magnetization       =     6.28 Bohr mag/cell
     absolute magnetization    =     6.60 Bohr mag/cell

     iteration # 31     ecut=    71.00 Ry     beta=0.70
     Davidson diagonalization with overlap
     ethr =  2.42E-08,  avg # of iterations =  1.0

     negative rho (up, down):  0.000E+00 2.214E-04
 
     Magnetic moment per site:
     atom:    1    charge:   12.8345    magn:    1.1727    constr:    0.0000
     atom:    2    charge:   12.8345    magn:    1.1727    constr:    0.0000
     atom:    3    charge:   12.8345    magn:    1.1727    constr:    0.0000
     atom:    4    charge:   12.7647    magn:    2.3291    constr:    0.0000
     atom:    5    charge:    4.0893    magn:    0.0171    constr:    0.0000

     total cpu time spent up to now is       36.3 secs

     total energy              =   -1345.13982845 Ry
     Harris-Foulkes estimate   =   -1345.13982158 Ry
     estimated scf accuracy    <       0.00001896 Ry

     total magnetization       =     6.29 Bohr mag/cell
     absolute magnetization    =     6.60 Bohr mag/cell

     iteration # 32     ecut=    71.00 Ry     beta=0.70
     Davidson diagonalization with overlap
     ethr =  2.42E-08,  avg # of iterations =  2.0

     negative rho (up, down):  0.000E+00 2.213E-04
 
     Magnetic moment per site:
     atom:    1    charge:   12.8344    magn:    1.1758    constr:    0.0000
     atom:    2    charge:   12.8344    magn:    1.1758    constr:    0.0000
     atom:    3    charge:   12.8344    magn:    1.1758    constr:    0.0000
     atom:    4    charge:   12.7648    magn:    2.3287    constr:    0.0000
     atom:    5    charge:    4.0895    magn:    0.0174    constr:    0.0000

     total cpu time spent up to now is       37.4 secs

     total energy              =   -1345.13983007 Ry
     Harris-Foulkes estimate   =   -1345.13983418 Ry
     estimated scf accuracy    <       0.00001308 Ry

     total magnetization       =     6.28 Bohr mag/cell
     absolute magnetization    =     6.59 Bohr mag/cell

     iteration # 33     ecut=    71.00 Ry     beta=0.70
     Davidson diagonalization with overlap
     ethr =  1.90E-08,  avg # of iterations =  1.0

     negative rho (up, down):  0.000E+00 2.217E-04
 
     Magnetic moment per site:
     atom:    1    charge:   12.8346    magn:    1.1576    constr:    0.0000
     atom:    2    charge:   12.8346    magn:    1.1576    constr:    0.0000
     atom:    3    charge:   12.8346    magn:    1.1576    constr:    0.0000
     atom:    4    charge:   12.7642    magn:    2.3295    constr:    0.0000
     atom:    5    charge:    4.0892    magn:    0.0174    constr:    0.0000

     total cpu time spent up to now is       38.5 secs

     total energy              =   -1345.13982539 Ry
     Harris-Foulkes estimate   =   -1345.13983051 Ry
     estimated scf accuracy    <       0.00001641 Ry

     total magnetization       =     6.28 Bohr mag/cell
     absolute magnetization    =     6.59 Bohr mag/cell

     iteration # 34     ecut=    71.00 Ry     beta=0.70
     Davidson diagonalization with overlap
     ethr =  1.90E-08,  avg # of iterations =  3.2

     negative rho (up, down):  0.000E+00 2.201E-04
 
     Magnetic moment per site:
     atom:    1    charge:   12.8345    magn:    1.1694    constr:    0.0000
     atom:    2    charge:   12.8345    magn:    1.1694    constr:    0.0000
     atom:    3    charge:   12.8345    magn:    1.1694    constr:    0.0000
     atom:    4    charge:   12.7645    magn:    2.3248    constr:    0.0000
     atom:    5    charge:    4.0893    magn:    0.0173    constr:    0.0000

     total cpu time spent up to now is       39.7 secs

     total energy              =   -1345.13983695 Ry
     Harris-Foulkes estimate   =   -1345.13983681 Ry
     estimated scf accuracy    <       0.00001092 Ry

     total magnetization       =     6.29 Bohr mag/cell
     absolute magnetization    =     6.59 Bohr mag/cell

     iteration # 35     ecut=    71.00 Ry     beta=0.70
     Davidson diagonalization with overlap
     ethr =  1.58E-08,  avg # of iterations =  2.8

     negative rho (up, down):  0.000E+00 2.202E-04
 
     Magnetic moment per site:
     atom:    1    charge:   12.8345    magn:    1.1663    constr:    0.0000
     atom:    2    charge:   12.8345    magn:    1.1663    constr:    0.0000
     atom:    3    charge:   12.8345    magn:    1.1663    constr:    0.0000
     atom:    4    charge:   12.7644    magn:    2.3258    constr:    0.0000
     atom:    5    charge:    4.0893    magn:    0.0176    constr:    0.0000

     total cpu time spent up to now is       40.9 secs

     total energy              =   -1345.13983974 Ry
     Harris-Foulkes estimate   =   -1345.13983850 Ry
     estimated scf accuracy    <       0.00000339 Ry

     total magnetization       =     6.28 Bohr mag/cell
     absolute magnetization    =     6.58 Bohr mag/cell

     iteration # 36     ecut=    71.00 Ry     beta=0.70
     Davidson diagonalization with overlap
     ethr =  4.91E-09,  avg # of iterations =  1.8

     negative rho (up, down):  0.000E+00 2.204E-04
 
     Magnetic moment per site:
     atom:    1    charge:   12.8345    magn:    1.1648    constr:    0.0000
     atom:    2    charge:   12.8345    magn:    1.1648    constr:    0.0000
     atom:    3    charge:   12.8345    magn:    1.1648    constr:    0.0000
     atom:    4    charge:   12.7644    magn:    2.3264    constr:    0.0000
     atom:    5    charge:    4.0893    magn:    0.0176    constr:    0.0000

     total cpu time spent up to now is       42.0 secs

     total energy              =   -1345.13984037 Ry
     Harris-Foulkes estimate   =   -1345.13984015 Ry
     estimated scf accuracy    <       0.00000069 Ry

     total magnetization       =     6.28 Bohr mag/cell
     absolute magnetization    =     6.58 Bohr mag/cell

     iteration # 37     ecut=    71.00 Ry     beta=0.70
     Davidson diagonalization with overlap
     ethr =  1.00E-09,  avg # of iterations =  2.6

     negative rho (up, down):  0.000E+00 2.205E-04
 
     Magnetic moment per site:
     atom:    1    charge:   12.8345    magn:    1.1645    constr:    0.0000
     atom:    2    charge:   12.8345    magn:    1.1645    constr:    0.0000
     atom:    3    charge:   12.8345    magn:    1.1645    constr:    0.0000
     atom:    4    charge:   12.7644    magn:    2.3265    constr:    0.0000
     atom:    5    charge:    4.0893    magn:    0.0176    constr:    0.0000

     total cpu time spent up to now is       43.1 secs

     total energy              =   -1345.13984047 Ry
     Harris-Foulkes estimate   =   -1345.13984046 Ry
     estimated scf accuracy    <       0.00000005 Ry

     total magnetization       =     6.28 Bohr mag/cell
     absolute magnetization    =     6.58 Bohr mag/cell

     iteration # 38     ecut=    71.00 Ry     beta=0.70
     Davidson diagonalization with overlap
     ethr =  6.86E-11,  avg # of iterations =  2.4

     negative rho (up, down):  0.000E+00 2.205E-04
 
     Magnetic moment per site:
     atom:    1    charge:   12.8345    magn:    1.1641    constr:    0.0000
     atom:    2    charge:   12.8345    magn:    1.1641    constr:    0.0000
     atom:    3    charge:   12.8345    magn:    1.1641    constr:    0.0000
     atom:    4    charge:   12.7644    magn:    2.3266    constr:    0.0000
     atom:    5    charge:    4.0893    magn:    0.0176    constr:    0.0000

     total cpu time spent up to now is       44.2 secs

     total energy              =   -1345.13984048 Ry
     Harris-Foulkes estimate   =   -1345.13984048 Ry
     estimated scf accuracy    <       0.00000001 Ry

     total magnetization       =     6.28 Bohr mag/cell
     absolute magnetization    =     6.58 Bohr mag/cell

     iteration # 39     ecut=    71.00 Ry     beta=0.70
     Davidson diagonalization with overlap
     ethr =  1.87E-11,  avg # of iterations =  2.6

     negative rho (up, down):  0.000E+00 2.205E-04
 
     Magnetic moment per site:
     atom:    1    charge:   12.8345    magn:    1.1642    constr:    0.0000
     atom:    2    charge:   12.8345    magn:    1.1642    constr:    0.0000
     atom:    3    charge:   12.8345    magn:    1.1642    constr:    0.0000
     atom:    4    charge:   12.7644    magn:    2.3266    constr:    0.0000
     atom:    5    charge:    4.0893    magn:    0.0177    constr:    0.0000

     total cpu time spent up to now is       45.3 secs

     End of self-consistent calculation

 ------ SPIN UP ------------


          k = 0.0000 0.0000 0.0000 (  3407 PWs)   bands (ev):

   -69.8938 -69.1040 -69.0490 -69.0490 -35.9454 -35.9454 -35.9454 -35.4422
   -35.4422 -35.4422 -35.0104 -35.0104 -35.0104 -35.0034 -35.0034 -35.0034
     0.3467  11.4661  13.3246  13.3246  13.3246  13.8751  13.8751  14.2144
    14.2144  14.2144  16.2161  16.2161  16.2161  17.3160  17.3160  17.9677
    17.9677  18.5434  18.5434  18.5434  18.5438  18.6490  18.6490  18.6490
    22.0461  23.7589

          k = 0.0000 0.0000 0.3333 (  3382 PWs)   bands (ev):

   -69.8932 -69.0927 -69.0606 -69.0489 -35.9398 -35.9398 -35.9380 -35.4328
   -35.4328 -35.4244 -35.0360 -35.0183 -35.0183 -35.0123 -35.0098 -35.0098
     0.8271  10.6867  12.5192  12.5192  12.9042  14.2479  14.4486  14.6548
    15.2507  15.2507  15.6964  16.4663  16.4663  17.0279  17.4242  17.5180
    17.7015  17.7575  17.7575  18.0934  18.5312  18.5312  18.5447  18.6406
    22.1461  22.6810

          k = 0.0000 0.3333 0.3333 (  3387 PWs)   bands (ev):

   -69.8928 -69.0831 -69.0628 -69.0565 -35.9431 -35.9384 -35.9356 -35.5078
   -35.4221 -35.3354 -35.0962 -35.0231 -35.0226 -35.0210 -35.0168 -34.9580
     1.3152  10.5842  10.6281  12.0827  13.6334  14.8803  14.8940  14.9878
    15.5323  15.5577  15.7375  15.8323  16.6738  16.7435  16.7780  16.9355
    17.4635  17.6816  17.8997  18.0390  18.2457  18.7049  19.1058  19.2875
    21.3612  23.4525

          k = 0.3333 0.3333 0.3333 (  3380 PWs)   bands (ev):

   -69.8926 -69.0768 -69.0628 -69.0628 -35.9473 -35.9473 -35.9394 -35.5909
   -35.3319 -35.3319 -35.0948 -35.0814 -35.0814 -34.9607 -34.9607 -34.9562
     1.8223  10.3023  10.3023  10.4325  14.0446  15.0536  15.0922  15.0922
    15.7082  15.7082  16.2208  16.3253  16.3253  16.6734  16.6734  16.8346
    17.5923  17.6848  17.6848  18.3641  18.3641  18.4546  19.8591  19.8591
    22.0255  22.0255

 ------ SPIN DOWN ----------


          k = 0.0000 0.0000 0.0000 (  3407 PWs)   bands (ev):

   -67.6176 -67.5568 -67.5568 -66.9077 -34.1888 -34.1888 -34.1888 -33.4963
   -33.4963 -33.4963 -33.4560 -33.4560 -33.4560 -32.9941 -32.9941 -32.9941
     0.4430  11.6807  13.3964  13.3964  13.3964  15.1054  15.1054  15.3719
    15.3719  15.3719  17.7859  17.7859  17.7859  18.4918  18.4918  20.0929
    20.0929  20.0929  20.1721  20.1721  20.3399  20.5089  20.5089  20.5089
    22.8663  23.9343

          k = 0.0000 0.0000 0.3333 (  3382 PWs)   bands (ev):

   -67.6042 -67.5693 -67.5567 -66.9082 -34.1800 -34.1800 -34.1764 -33.4970
   -33.4896 -33.4896 -33.4624 -33.4624 -33.4583 -33.0148 -33.0026 -33.0026
     0.9205  10.8430  12.8021  12.8021  13.2072  15.1256  15.8401  15.8453
    16.2489  16.2489  17.1938  18.2644  18.2644  18.4364  18.4850  19.1908
    19.1908  19.5410  19.6620  19.8761  19.8761  20.0945  20.1053  20.5097
    22.8017  23.3795

          k = 0.0000 0.3333 0.3333 (  3387 PWs)   bands (ev):

   -67.5933 -67.5715 -67.5649 -66.9086 -34.2657 -34.1726 -34.0815 -33.5526
   -33.4937 -33.4810 -33.4807 -33.4700 -33.4033 -33.0124 -33.0121 -32.9996
     1.4039  10.8067  10.8668  12.4123  14.0021  15.7681  15.9259  16.2975
    16.6159  16.6171  17.0671  17.4284  17.9085  18.2962  18.4671  19.1964
    19.2590  19.3374  19.5098  19.6729  19.8195  20.2804  20.3513  20.6864
    22.3463  24.1613

          k = 0.3333 0.3333 0.3333 (  3380 PWs)   bands (ev):

   -67.5864 -67.5714 -67.5714 -66.9086 -34.3551 -34.0790 -34.0790 -33.5712
   -33.5712 -33.5635 -33.4054 -33.4054 -33.3984 -33.0107 -32.9952 -32.9952
     1.9039  10.6048  10.6048  10.7061  14.5248  15.9188  16.2932  16.2932
    16.9790  16.9790  17.3374  17.5869  17.5869  18.2649  18.2649  18.2958
    19.2677  19.5948  19.5948  20.1131  20.1284  20.1284  21.1604  21.1604
    22.8233  22.8233

     the Fermi energy is    18.5788 ev

!    total energy              =   -1345.13984048 Ry
     Harris-Foulkes estimate   =   -1345.13984048 Ry
     estimated scf accuracy    <          1.4E-09 Ry

     total all-electron energy =    -10291.741476 Ry

     The total energy is the sum of the following terms:

     one-electron contribution =    -446.63017151 Ry
     hartree contribution      =     268.96440426 Ry
     xc contribution           =    -116.93037818 Ry
     ewald contribution        =    -711.61403732 Ry
     one-center paw contrib.   =    -338.93031775 Ry
     smearing contrib. (-TS)   =       0.00066002 Ry

     total magnetization       =     6.28 Bohr mag/cell
     absolute magnetization    =     6.58 Bohr mag/cell

     convergence has been achieved in  39 iterations

     Forces acting on atoms (Ry/au):


     negative rho (up, down):  0.000E+00 2.205E-04
     atom    1 type  1   force =     0.00000000    0.00000000    0.00000000
     atom    2 type  1   force =     0.00000000    0.00000000    0.00000000
     atom    3 type  1   force =     0.00000000    0.00000000    0.00000000
     atom    4 type  1   force =     0.00000000    0.00000000    0.00000000
     atom    5 type  2   force =     0.00000000    0.00000000    0.00000000

     Total force =     0.000000     Total SCF correction =     0.000000


     entering subroutine stress ...


     negative rho (up, down):  0.000E+00 2.205E-04
          total   stress  (Ry/bohr**3)                   (kbar)     P=   45.43
   0.00030884   0.00000000   0.00000000         45.43      0.00      0.00
   0.00000000   0.00030884   0.00000000          0.00     45.43      0.00
   0.00000000   0.00000000   0.00030884          0.00      0.00     45.43


     Writing output data file config.save
 
     init_run     :      0.98s CPU      1.15s WALL (       1 calls)
     electrons    :     42.42s CPU     43.86s WALL (       1 calls)
     forces       :      0.20s CPU      0.20s WALL (       1 calls)
     stress       :      0.49s CPU      0.49s WALL (       1 calls)

     Called by init_run:
     wfcinit      :      0.15s CPU      0.26s WALL (       1 calls)
     potinit      :      0.42s CPU      0.44s WALL (       1 calls)

     Called by electrons:
     c_bands      :     16.34s CPU     16.73s WALL (      39 calls)
     sum_band     :      7.71s CPU      7.93s WALL (      39 calls)
     v_of_rho     :      1.24s CPU      1.28s WALL (      40 calls)
     newd         :      1.88s CPU      1.91s WALL (      40 calls)
     mix_rho      :      0.32s CPU      0.33s WALL (      39 calls)

     Called by c_bands:
     init_us_2    :      0.26s CPU      0.26s WALL (     648 calls)
     cegterg      :     15.26s CPU     15.61s WALL (     312 calls)

     Called by sum_band:
     sum_band:bec :      0.01s CPU      0.01s WALL (     312 calls)
     addusdens    :      4.88s CPU      4.93s WALL (      39 calls)

     Called by *egterg:
     h_psi        :      9.77s CPU      9.97s WALL (     937 calls)
     s_psi        :      0.36s CPU      0.37s WALL (     937 calls)
     g_psi        :      0.08s CPU      0.08s WALL (     617 calls)
     cdiaghg      :      2.33s CPU      2.38s WALL (     929 calls)

     Called by h_psi:
     add_vuspsi   :      0.37s CPU      0.38s WALL (     937 calls)

     General routines
     calbec       :      0.82s CPU      0.88s WALL (    1289 calls)
     fft          :      0.68s CPU      0.69s WALL (    1274 calls)
     ffts         :      0.03s CPU      0.03s WALL (     158 calls)
     fftw         :      8.74s CPU      8.93s WALL (   70948 calls)
     interpolate  :      0.14s CPU      0.15s WALL (     158 calls)
     davcio       :      0.01s CPU      0.14s WALL (       8 calls)
 
     Parallel routines
     fft_scatter  :      3.60s CPU      3.73s WALL (   72380 calls)

     PAW routines
     PAW_pot      :     15.19s CPU     15.67s WALL (      40 calls)
     PAW_symme    :      0.05s CPU      0.06s WALL (      79 calls)
 
     PWSCF        :    44.54s CPU        46.47s WALL

 
   This run was terminated on:  20:20:56  26Oct2020            

=------------------------------------------------------------------------------=
   JOB DONE.
=------------------------------------------------------------------------------=
