
     Program PWSCF v.5.2.0 starts on 26Oct2020 at 21:22:43 

     This program is part of the open-source Quantum ESPRESSO suite
     for quantum simulation of materials; please cite
         "P. Giannozzi et al., J. Phys.:Condens. Matter 21 395502 (2009);
          URL http://www.quantum-espresso.org", 
     in publications or presentations arising from this work. More details at
     http://www.quantum-espresso.org/quote

     Parallel version (MPI), running on     6 processors
     R & G space division:  proc/nbgrp/npool/nimage =       6
     Reading input from 5.in

     Current dimensions of program PWSCF are:
     Max number of different atomic species (ntypx) = 10
     Max number of k-points (npk) =  40000
     Max angular momentum in pseudopotentials (lmaxx) =  3

     IMPORTANT: XC functional enforced from input :
     Exchange-correlation      = PBE ( 1  4  3  4 0 0)
     Any further DFT definition will be discarded
     Please, verify this is what you really want

               file Fe_PSEUDO: wavefunction(s)  3P 3D renormalized
               file N_PSEUDO: wavefunction(s)  2S renormalized

     Subspace diagonalization in iterative solution of the eigenvalue problem:
     a serial algorithm will be used

 
     Parallelization info
     --------------------
     sticks:   dense  smooth     PW     G-vecs:    dense   smooth      PW
     Min         316     182     52                10419     4506     694
     Max         318     183     53                10422     4517     695
     Sum        1901    1093    317                62525    27081    4169
 
     Generating pointlists ...
     new r_m :   0.2063 (alat units)  1.4318 (a.u.) for type    1
     new r_m :   0.2063 (alat units)  1.4318 (a.u.) for type    2


     bravais-lattice index     =            0
     lattice parameter (alat)  =       6.9422  a.u.
     unit-cell volume          =     334.5777 (a.u.)^3
     number of atoms/cell      =            5
     number of atomic types    =            2
     number of electrons       =        69.00
     number of Kohn-Sham states=           42
     kinetic-energy cutoff     =      71.0000  Ry
     charge density cutoff     =     496.0000  Ry
     convergence threshold     =      1.0E-08
     mixing beta               =       0.7000
     number of iterations used =            8  plain     mixing
     Exchange-correlation      = PBE ( 1  4  3  4 0 0)

     celldm(1)=   6.942230  celldm(2)=   0.000000  celldm(3)=   0.000000
     celldm(4)=   0.000000  celldm(5)=   0.000000  celldm(6)=   0.000000

     crystal axes: (cart. coord. in units of alat)
               a(1) = (   1.000000   0.000000   0.000000 )  
               a(2) = (   0.000000   1.000000   0.000000 )  
               a(3) = (   0.000000   0.000000   1.000000 )  

     reciprocal axes: (cart. coord. in units 2 pi/alat)
               b(1) = (  1.000000  0.000000  0.000000 )  
               b(2) = (  0.000000  1.000000  0.000000 )  
               b(3) = (  0.000000  0.000000  1.000000 )  


     PseudoPot. # 1 for Fe read from file:
     pseudo/Fe_PSEUDO
     MD5 check sum: e30d5f36a6f0cb983ee41abee56170da
     Pseudo is Projector augmented-wave + core cor, Zval = 16.0
     Generated using "atomic" code by A. Dal Corso  v.6.3
     Shape of augmentation charge: PSQ
     Using radial grid of 1191 points,  6 beta functions with: 
                l(1) =   0
                l(2) =   0
                l(3) =   1
                l(4) =   1
                l(5) =   2
                l(6) =   2
     Q(r) pseudized with 0 coefficients 


     PseudoPot. # 2 for  N read from file:
     pseudo/N_PSEUDO
     MD5 check sum: 14c48229446f9f2d411169a3abcbc3fa
     Pseudo is Projector augmented-wave + core cor, Zval =  5.0
     Generated using "atomic" code by A. Dal Corso  v.6.3
     Shape of augmentation charge: PSQ
     Using radial grid of 1085 points,  4 beta functions with: 
                l(1) =   0
                l(2) =   0
                l(3) =   1
                l(4) =   1
     Q(r) pseudized with 0 coefficients 


     atomic species   valence    mass     pseudopotential
        Fe            16.00    55.84500     Fe( 1.00)
        N              5.00    14.00650      N( 1.00)

     Starting magnetic structure 
     atomic species   magnetization
        Fe           0.500
        N           -0.010

     48 Sym. Ops., with inversion, found



   Cartesian axes

     site n.     atom                  positions (alat units)
         1           Fe  tau(   1) = (   0.0000000   0.5000000   0.5000000  )
         2           Fe  tau(   2) = (   0.5000000   0.5000000   0.0000000  )
         3           Fe  tau(   3) = (   0.5000000   0.0000000   0.5000000  )
         4           Fe  tau(   4) = (   0.0000000   0.0000000   0.0000000  )
         5           N   tau(   5) = (   0.5000000   0.5000000   0.5000000  )

     number of k points=    20  Marzari-Vanderbilt smearing, width (Ry)=  0.0050
                       cart. coord. in units 2pi/alat
        k(    1) = (   0.0000000   0.0000000   0.0000000), wk =   0.0080000
        k(    2) = (   0.0000000   0.0000000   0.2000000), wk =   0.0480000
        k(    3) = (   0.0000000   0.0000000   0.4000000), wk =   0.0480000
        k(    4) = (   0.0000000   0.2000000   0.2000000), wk =   0.0960000
        k(    5) = (   0.0000000   0.2000000   0.4000000), wk =   0.1920000
        k(    6) = (   0.0000000   0.4000000   0.4000000), wk =   0.0960000
        k(    7) = (   0.2000000   0.2000000   0.2000000), wk =   0.0640000
        k(    8) = (   0.2000000   0.2000000   0.4000000), wk =   0.1920000
        k(    9) = (   0.2000000   0.4000000   0.4000000), wk =   0.1920000
        k(   10) = (   0.4000000   0.4000000   0.4000000), wk =   0.0640000
        k(   11) = (   0.0000000   0.0000000   0.0000000), wk =   0.0080000
        k(   12) = (   0.0000000   0.0000000   0.2000000), wk =   0.0480000
        k(   13) = (   0.0000000   0.0000000   0.4000000), wk =   0.0480000
        k(   14) = (   0.0000000   0.2000000   0.2000000), wk =   0.0960000
        k(   15) = (   0.0000000   0.2000000   0.4000000), wk =   0.1920000
        k(   16) = (   0.0000000   0.4000000   0.4000000), wk =   0.0960000
        k(   17) = (   0.2000000   0.2000000   0.2000000), wk =   0.0640000
        k(   18) = (   0.2000000   0.2000000   0.4000000), wk =   0.1920000
        k(   19) = (   0.2000000   0.4000000   0.4000000), wk =   0.1920000
        k(   20) = (   0.4000000   0.4000000   0.4000000), wk =   0.0640000

     Dense  grid:    62525 G-vectors     FFT dimensions: (  50,  50,  50)

     Smooth grid:    27081 G-vectors     FFT dimensions: (  40,  40,  40)

     Largest allocated arrays     est. size (Mb)     dimensions
        Kohn-Sham Wavefunctions         0.37 Mb     (     576,   42)
        NL pseudopotentials             0.70 Mb     (     576,   80)
        Each V/rho on FFT grid          0.69 Mb     (   22500,   2)
        Each G-vector array             0.08 Mb     (   10422)
        G-vector shells                 0.00 Mb     (     497)
     Largest temporary arrays     est. size (Mb)     dimensions
        Auxiliary wavefunctions         1.48 Mb     (     576,  168)
        Each subspace H/S matrix        0.43 Mb     (     168,  168)
        Each <psi_i|beta_j> matrix      0.05 Mb     (      80,   42)
        Arrays for rho mixing           2.75 Mb     (   22500,    8)

     Check: negative/imaginary core charge=   -0.000002    0.000000

     Initial potential from superposition of free atoms

     starting charge   68.99837, renormalised to   69.00000
     Starting wfc are   44 randomized atomic wfcs
     Checking if some PAW data can be deallocated... 

     total cpu time spent up to now is        2.0 secs

     per-process dynamical memory:    35.4 Mb

     Self-consistent Calculation

     iteration #  1     ecut=    71.00 Ry     beta=0.70
     Davidson diagonalization with overlap
     ethr =  1.00E-02,  avg # of iterations =  3.2

     negative rho (up, down):  0.000E+00 1.028E-03
 
     Magnetic moment per site:
     atom:    1    charge:   12.7282    magn:    4.0968    constr:    0.0000
     atom:    2    charge:   12.7282    magn:    4.0968    constr:    0.0000
     atom:    3    charge:   12.7282    magn:    4.0968    constr:    0.0000
     atom:    4    charge:   12.6302    magn:    4.1441    constr:    0.0000
     atom:    5    charge:    4.6341    magn:    0.1143    constr:    0.0000

     total cpu time spent up to now is        4.0 secs

     total energy              =   -1344.13415340 Ry
     Harris-Foulkes estimate   =   -1343.41681020 Ry
     estimated scf accuracy    <       2.86821422 Ry

     total magnetization       =    13.78 Bohr mag/cell
     absolute magnetization    =    13.99 Bohr mag/cell

     iteration #  2     ecut=    71.00 Ry     beta=0.70
     Davidson diagonalization with overlap
     ethr =  4.16E-03,  avg # of iterations =  3.4

     negative rho (up, down):  0.000E+00 8.782E-04
 
     Magnetic moment per site:
     atom:    1    charge:   12.7307    magn:    3.7896    constr:    0.0000
     atom:    2    charge:   12.7307    magn:    3.7896    constr:    0.0000
     atom:    3    charge:   12.7307    magn:    3.7896    constr:    0.0000
     atom:    4    charge:   13.0674    magn:    3.5417    constr:    0.0000
     atom:    5    charge:    4.2001    magn:    0.0503    constr:    0.0000

     total cpu time spent up to now is        6.1 secs

     total energy              =   -1343.37541234 Ry
     Harris-Foulkes estimate   =   -1345.65423555 Ry
     estimated scf accuracy    <       7.61998326 Ry

     total magnetization       =     9.33 Bohr mag/cell
     absolute magnetization    =    10.48 Bohr mag/cell

     iteration #  3     ecut=    71.00 Ry     beta=0.70
     Davidson diagonalization with overlap
     ethr =  4.16E-03,  avg # of iterations =  3.6

     negative rho (up, down):  0.000E+00 6.761E-04
 
     Magnetic moment per site:
     atom:    1    charge:   12.8857    magn:    3.4354    constr:    0.0000
     atom:    2    charge:   12.8857    magn:    3.4354    constr:    0.0000
     atom:    3    charge:   12.8857    magn:    3.4354    constr:    0.0000
     atom:    4    charge:   12.8088    magn:    3.0259    constr:    0.0000
     atom:    5    charge:    4.0221    magn:    0.0198    constr:    0.0000

     total cpu time spent up to now is        8.2 secs

     total energy              =   -1343.60715342 Ry
     Harris-Foulkes estimate   =   -1346.16288826 Ry
     estimated scf accuracy    <      25.23752679 Ry

     total magnetization       =     3.82 Bohr mag/cell
     absolute magnetization    =     4.54 Bohr mag/cell

     iteration #  4     ecut=    71.00 Ry     beta=0.70
     Davidson diagonalization with overlap
     ethr =  4.16E-03,  avg # of iterations =  3.3

     negative rho (up, down):  0.000E+00 1.173E-03
 
     Magnetic moment per site:
     atom:    1    charge:   12.7733    magn:    2.2413    constr:    0.0000
     atom:    2    charge:   12.7733    magn:    2.2413    constr:    0.0000
     atom:    3    charge:   12.7733    magn:    2.2413    constr:    0.0000
     atom:    4    charge:   12.7275    magn:    1.8630    constr:    0.0000
     atom:    5    charge:    4.0518    magn:   -0.0539    constr:    0.0000

     total cpu time spent up to now is       10.2 secs

     total energy              =   -1344.99572341 Ry
     Harris-Foulkes estimate   =   -1345.08467348 Ry
     estimated scf accuracy    <       0.57974209 Ry

     total magnetization       =    10.71 Bohr mag/cell
     absolute magnetization    =    11.13 Bohr mag/cell

     iteration #  5     ecut=    71.00 Ry     beta=0.70
     Davidson diagonalization with overlap
     ethr =  8.40E-04,  avg # of iterations =  3.3

     negative rho (up, down):  0.000E+00 9.886E-04
 
     Magnetic moment per site:
     atom:    1    charge:   12.8323    magn:    2.1475    constr:    0.0000
     atom:    2    charge:   12.8323    magn:    2.1475    constr:    0.0000
     atom:    3    charge:   12.8323    magn:    2.1475    constr:    0.0000
     atom:    4    charge:   12.8025    magn:    2.0343    constr:    0.0000
     atom:    5    charge:    4.1097    magn:   -0.0280    constr:    0.0000

     total cpu time spent up to now is       12.5 secs

     total energy              =   -1345.08523697 Ry
     Harris-Foulkes estimate   =   -1345.17460979 Ry
     estimated scf accuracy    <       0.25490404 Ry

     total magnetization       =     9.56 Bohr mag/cell
     absolute magnetization    =     9.93 Bohr mag/cell

     iteration #  6     ecut=    71.00 Ry     beta=0.70
     Davidson diagonalization with overlap
     ethr =  3.69E-04,  avg # of iterations =  3.0

     negative rho (up, down):  0.000E+00 8.739E-04
 
     Magnetic moment per site:
     atom:    1    charge:   12.8268    magn:    2.0872    constr:    0.0000
     atom:    2    charge:   12.8268    magn:    2.0872    constr:    0.0000
     atom:    3    charge:   12.8268    magn:    2.0872    constr:    0.0000
     atom:    4    charge:   12.7930    magn:    2.3466    constr:    0.0000
     atom:    5    charge:    4.1120    magn:    0.0062    constr:    0.0000

     total cpu time spent up to now is       14.7 secs

     total energy              =   -1345.13300556 Ry
     Harris-Foulkes estimate   =   -1345.12854259 Ry
     estimated scf accuracy    <       0.02774877 Ry

     total magnetization       =     9.23 Bohr mag/cell
     absolute magnetization    =     9.60 Bohr mag/cell

     iteration #  7     ecut=    71.00 Ry     beta=0.70
     Davidson diagonalization with overlap
     ethr =  4.02E-05,  avg # of iterations =  1.6

     negative rho (up, down):  0.000E+00 6.966E-04
 
     Magnetic moment per site:
     atom:    1    charge:   12.8294    magn:    1.8485    constr:    0.0000
     atom:    2    charge:   12.8294    magn:    1.8485    constr:    0.0000
     atom:    3    charge:   12.8294    magn:    1.8485    constr:    0.0000
     atom:    4    charge:   12.7689    magn:    2.8456    constr:    0.0000
     atom:    5    charge:    4.1057    magn:    0.0367    constr:    0.0000

     total cpu time spent up to now is       16.5 secs

     total energy              =   -1345.13178668 Ry
     Harris-Foulkes estimate   =   -1345.13477604 Ry
     estimated scf accuracy    <       0.02173459 Ry

     total magnetization       =     9.14 Bohr mag/cell
     absolute magnetization    =     9.51 Bohr mag/cell

     iteration #  8     ecut=    71.00 Ry     beta=0.70
     Davidson diagonalization with overlap
     ethr =  3.15E-05,  avg # of iterations =  2.2

     negative rho (up, down):  0.000E+00 7.228E-04
 
     Magnetic moment per site:
     atom:    1    charge:   12.8311    magn:    1.8664    constr:    0.0000
     atom:    2    charge:   12.8311    magn:    1.8664    constr:    0.0000
     atom:    3    charge:   12.8311    magn:    1.8664    constr:    0.0000
     atom:    4    charge:   12.7747    magn:    2.6906    constr:    0.0000
     atom:    5    charge:    4.1110    magn:    0.0335    constr:    0.0000

     total cpu time spent up to now is       18.6 secs

     total energy              =   -1345.13798574 Ry
     Harris-Foulkes estimate   =   -1345.13760782 Ry
     estimated scf accuracy    <       0.00134697 Ry

     total magnetization       =     8.98 Bohr mag/cell
     absolute magnetization    =     9.33 Bohr mag/cell

     iteration #  9     ecut=    71.00 Ry     beta=0.70
     Davidson diagonalization with overlap
     ethr =  1.95E-06,  avg # of iterations =  2.3

     negative rho (up, down):  0.000E+00 7.014E-04
 
     Magnetic moment per site:
     atom:    1    charge:   12.8311    magn:    1.8580    constr:    0.0000
     atom:    2    charge:   12.8311    magn:    1.8580    constr:    0.0000
     atom:    3    charge:   12.8311    magn:    1.8580    constr:    0.0000
     atom:    4    charge:   12.7770    magn:    2.6564    constr:    0.0000
     atom:    5    charge:    4.1112    magn:    0.0378    constr:    0.0000

     total cpu time spent up to now is       20.6 secs

     total energy              =   -1345.13833775 Ry
     Harris-Foulkes estimate   =   -1345.13830826 Ry
     estimated scf accuracy    <       0.00020925 Ry

     total magnetization       =     8.97 Bohr mag/cell
     absolute magnetization    =     9.32 Bohr mag/cell

     iteration # 10     ecut=    71.00 Ry     beta=0.70
     Davidson diagonalization with overlap
     ethr =  3.03E-07,  avg # of iterations =  1.8

     negative rho (up, down):  0.000E+00 6.723E-04
 
     Magnetic moment per site:
     atom:    1    charge:   12.8313    magn:    1.8450    constr:    0.0000
     atom:    2    charge:   12.8313    magn:    1.8450    constr:    0.0000
     atom:    3    charge:   12.8313    magn:    1.8450    constr:    0.0000
     atom:    4    charge:   12.7776    magn:    2.6508    constr:    0.0000
     atom:    5    charge:    4.1104    magn:    0.0424    constr:    0.0000

     total cpu time spent up to now is       22.5 secs

     total energy              =   -1345.13835705 Ry
     Harris-Foulkes estimate   =   -1345.13835664 Ry
     estimated scf accuracy    <       0.00001432 Ry

     total magnetization       =     8.95 Bohr mag/cell
     absolute magnetization    =     9.29 Bohr mag/cell

     iteration # 11     ecut=    71.00 Ry     beta=0.70
     Davidson diagonalization with overlap
     ethr =  2.08E-08,  avg # of iterations =  3.1

     negative rho (up, down):  0.000E+00 6.669E-04
 
     Magnetic moment per site:
     atom:    1    charge:   12.8315    magn:    1.8374    constr:    0.0000
     atom:    2    charge:   12.8315    magn:    1.8374    constr:    0.0000
     atom:    3    charge:   12.8315    magn:    1.8374    constr:    0.0000
     atom:    4    charge:   12.7774    magn:    2.6501    constr:    0.0000
     atom:    5    charge:    4.1101    magn:    0.0414    constr:    0.0000

     total cpu time spent up to now is       24.8 secs

     total energy              =   -1345.13837145 Ry
     Harris-Foulkes estimate   =   -1345.13837120 Ry
     estimated scf accuracy    <       0.00000320 Ry

     total magnetization       =     8.91 Bohr mag/cell
     absolute magnetization    =     9.25 Bohr mag/cell

     iteration # 12     ecut=    71.00 Ry     beta=0.70
     Davidson diagonalization with overlap
     ethr =  4.63E-09,  avg # of iterations =  2.8

     negative rho (up, down):  0.000E+00 6.690E-04
 
     Magnetic moment per site:
     atom:    1    charge:   12.8315    magn:    1.8398    constr:    0.0000
     atom:    2    charge:   12.8315    magn:    1.8398    constr:    0.0000
     atom:    3    charge:   12.8315    magn:    1.8398    constr:    0.0000
     atom:    4    charge:   12.7775    magn:    2.6497    constr:    0.0000
     atom:    5    charge:    4.1102    magn:    0.0416    constr:    0.0000

     total cpu time spent up to now is       26.8 secs

     total energy              =   -1345.13837427 Ry
     Harris-Foulkes estimate   =   -1345.13837639 Ry
     estimated scf accuracy    <       0.00000455 Ry

     total magnetization       =     8.88 Bohr mag/cell
     absolute magnetization    =     9.22 Bohr mag/cell

     iteration # 13     ecut=    71.00 Ry     beta=0.70
     Davidson diagonalization with overlap
     ethr =  4.63E-09,  avg # of iterations =  1.0

     negative rho (up, down):  0.000E+00 6.996E-04
 
     Magnetic moment per site:
     atom:    1    charge:   12.8310    magn:    1.8745    constr:    0.0000
     atom:    2    charge:   12.8310    magn:    1.8745    constr:    0.0000
     atom:    3    charge:   12.8310    magn:    1.8745    constr:    0.0000
     atom:    4    charge:   12.7781    magn:    2.6502    constr:    0.0000
     atom:    5    charge:    4.1118    magn:    0.0450    constr:    0.0000

     total cpu time spent up to now is       28.4 secs

     total energy              =   -1345.13825899 Ry
     Harris-Foulkes estimate   =   -1345.13837475 Ry
     estimated scf accuracy    <       0.00000401 Ry

     total magnetization       =     8.89 Bohr mag/cell
     absolute magnetization    =     9.23 Bohr mag/cell

     iteration # 14     ecut=    71.00 Ry     beta=0.70
     Davidson diagonalization with overlap
     ethr =  4.63E-09,  avg # of iterations =  3.8

     negative rho (up, down):  0.000E+00 7.118E-04
 
     Magnetic moment per site:
     atom:    1    charge:   12.8309    magn:    1.8880    constr:    0.0000
     atom:    2    charge:   12.8309    magn:    1.8880    constr:    0.0000
     atom:    3    charge:   12.8309    magn:    1.8880    constr:    0.0000
     atom:    4    charge:   12.7784    magn:    2.6488    constr:    0.0000
     atom:    5    charge:    4.1123    magn:    0.0464    constr:    0.0000

     total cpu time spent up to now is       30.9 secs

     total energy              =   -1345.13831765 Ry
     Harris-Foulkes estimate   =   -1345.13834850 Ry
     estimated scf accuracy    <       0.00001638 Ry

     total magnetization       =     8.99 Bohr mag/cell
     absolute magnetization    =     9.33 Bohr mag/cell

     iteration # 15     ecut=    71.00 Ry     beta=0.70
     Davidson diagonalization with overlap
     ethr =  4.63E-09,  avg # of iterations =  3.4

     negative rho (up, down):  0.000E+00 6.834E-04
 
     Magnetic moment per site:
     atom:    1    charge:   12.8313    magn:    1.8567    constr:    0.0000
     atom:    2    charge:   12.8313    magn:    1.8567    constr:    0.0000
     atom:    3    charge:   12.8313    magn:    1.8567    constr:    0.0000
     atom:    4    charge:   12.7776    magn:    2.6507    constr:    0.0000
     atom:    5    charge:    4.1109    magn:    0.0430    constr:    0.0000

     total cpu time spent up to now is       33.1 secs

     total energy              =   -1345.13831706 Ry
     Harris-Foulkes estimate   =   -1345.13832623 Ry
     estimated scf accuracy    <       0.00004950 Ry

     total magnetization       =     9.01 Bohr mag/cell
     absolute magnetization    =     9.35 Bohr mag/cell

     iteration # 16     ecut=    71.00 Ry     beta=0.70
     Davidson diagonalization with overlap
     ethr =  4.63E-09,  avg # of iterations =  3.9

     negative rho (up, down):  0.000E+00 6.822E-04
 
     Magnetic moment per site:
     atom:    1    charge:   12.8313    magn:    1.8561    constr:    0.0000
     atom:    2    charge:   12.8313    magn:    1.8561    constr:    0.0000
     atom:    3    charge:   12.8313    magn:    1.8561    constr:    0.0000
     atom:    4    charge:   12.7776    magn:    2.6505    constr:    0.0000
     atom:    5    charge:    4.1109    magn:    0.0429    constr:    0.0000

     total cpu time spent up to now is       35.6 secs

     total energy              =   -1345.13836494 Ry
     Harris-Foulkes estimate   =   -1345.13836458 Ry
     estimated scf accuracy    <       0.00000595 Ry

     total magnetization       =     8.95 Bohr mag/cell
     absolute magnetization    =     9.29 Bohr mag/cell

     iteration # 17     ecut=    71.00 Ry     beta=0.70
     Davidson diagonalization with overlap
     ethr =  4.63E-09,  avg # of iterations =  1.0

     negative rho (up, down):  0.000E+00 6.763E-04
 
     Magnetic moment per site:
     atom:    1    charge:   12.8313    magn:    1.8497    constr:    0.0000
     atom:    2    charge:   12.8313    magn:    1.8497    constr:    0.0000
     atom:    3    charge:   12.8313    magn:    1.8497    constr:    0.0000
     atom:    4    charge:   12.7775    magn:    2.6509    constr:    0.0000
     atom:    5    charge:    4.1106    magn:    0.0422    constr:    0.0000

     total cpu time spent up to now is       37.3 secs

     total energy              =   -1345.13836592 Ry
     Harris-Foulkes estimate   =   -1345.13836498 Ry
     estimated scf accuracy    <       0.00000536 Ry

     total magnetization       =     8.95 Bohr mag/cell
     absolute magnetization    =     9.29 Bohr mag/cell

     iteration # 18     ecut=    71.00 Ry     beta=0.70
     Davidson diagonalization with overlap
     ethr =  4.63E-09,  avg # of iterations =  2.4

     negative rho (up, down):  0.000E+00 6.742E-04
 
     Magnetic moment per site:
     atom:    1    charge:   12.8314    magn:    1.8475    constr:    0.0000
     atom:    2    charge:   12.8314    magn:    1.8475    constr:    0.0000
     atom:    3    charge:   12.8314    magn:    1.8475    constr:    0.0000
     atom:    4    charge:   12.7774    magn:    2.6512    constr:    0.0000
     atom:    5    charge:    4.1105    magn:    0.0420    constr:    0.0000

     total cpu time spent up to now is       39.2 secs

     total energy              =   -1345.13836990 Ry
     Harris-Foulkes estimate   =   -1345.13836891 Ry
     estimated scf accuracy    <       0.00000451 Ry

     total magnetization       =     8.93 Bohr mag/cell
     absolute magnetization    =     9.27 Bohr mag/cell

     iteration # 19     ecut=    71.00 Ry     beta=0.70
     Davidson diagonalization with overlap
     ethr =  4.63E-09,  avg # of iterations =  1.0

     negative rho (up, down):  0.000E+00 6.697E-04
 
     Magnetic moment per site:
     atom:    1    charge:   12.8314    magn:    1.8427    constr:    0.0000
     atom:    2    charge:   12.8314    magn:    1.8427    constr:    0.0000
     atom:    3    charge:   12.8314    magn:    1.8427    constr:    0.0000
     atom:    4    charge:   12.7773    magn:    2.6515    constr:    0.0000
     atom:    5    charge:    4.1103    magn:    0.0415    constr:    0.0000

     total cpu time spent up to now is       40.8 secs

     total energy              =   -1345.13837139 Ry
     Harris-Foulkes estimate   =   -1345.13837031 Ry
     estimated scf accuracy    <       0.00000470 Ry

     total magnetization       =     8.92 Bohr mag/cell
     absolute magnetization    =     9.26 Bohr mag/cell

     iteration # 20     ecut=    71.00 Ry     beta=0.70
     Davidson diagonalization with overlap
     ethr =  4.63E-09,  avg # of iterations =  2.0

     negative rho (up, down):  0.000E+00 6.761E-04
 
     Magnetic moment per site:
     atom:    1    charge:   12.8313    magn:    1.8497    constr:    0.0000
     atom:    2    charge:   12.8313    magn:    1.8497    constr:    0.0000
     atom:    3    charge:   12.8313    magn:    1.8497    constr:    0.0000
     atom:    4    charge:   12.7774    magn:    2.6509    constr:    0.0000
     atom:    5    charge:    4.1106    magn:    0.0422    constr:    0.0000

     total cpu time spent up to now is       42.8 secs

     total energy              =   -1345.13836494 Ry
     Harris-Foulkes estimate   =   -1345.13837333 Ry
     estimated scf accuracy    <       0.00000519 Ry

     total magnetization       =     8.90 Bohr mag/cell
     absolute magnetization    =     9.24 Bohr mag/cell

     iteration # 21     ecut=    71.00 Ry     beta=0.70
     Davidson diagonalization with overlap
     ethr =  4.63E-09,  avg # of iterations =  2.6

     negative rho (up, down):  0.000E+00 6.750E-04
 
     Magnetic moment per site:
     atom:    1    charge:   12.8313    magn:    1.8484    constr:    0.0000
     atom:    2    charge:   12.8313    magn:    1.8484    constr:    0.0000
     atom:    3    charge:   12.8313    magn:    1.8484    constr:    0.0000
     atom:    4    charge:   12.7774    magn:    2.6510    constr:    0.0000
     atom:    5    charge:    4.1105    magn:    0.0421    constr:    0.0000

     total cpu time spent up to now is       44.9 secs

     total energy              =   -1345.13836961 Ry
     Harris-Foulkes estimate   =   -1345.13836897 Ry
     estimated scf accuracy    <       0.00000461 Ry

     total magnetization       =     8.93 Bohr mag/cell
     absolute magnetization    =     9.26 Bohr mag/cell

     iteration # 22     ecut=    71.00 Ry     beta=0.70
     Davidson diagonalization with overlap
     ethr =  4.63E-09,  avg # of iterations =  1.0

     negative rho (up, down):  0.000E+00 6.774E-04
 
     Magnetic moment per site:
     atom:    1    charge:   12.8313    magn:    1.8510    constr:    0.0000
     atom:    2    charge:   12.8313    magn:    1.8510    constr:    0.0000
     atom:    3    charge:   12.8313    magn:    1.8510    constr:    0.0000
     atom:    4    charge:   12.7775    magn:    2.6509    constr:    0.0000
     atom:    5    charge:    4.1106    magn:    0.0423    constr:    0.0000

     total cpu time spent up to now is       46.7 secs

     total energy              =   -1345.13836761 Ry
     Harris-Foulkes estimate   =   -1345.13836974 Ry
     estimated scf accuracy    <       0.00000457 Ry

     total magnetization       =     8.92 Bohr mag/cell
     absolute magnetization    =     9.26 Bohr mag/cell

     iteration # 23     ecut=    71.00 Ry     beta=0.70
     Davidson diagonalization with overlap
     ethr =  4.63E-09,  avg # of iterations =  1.0

     negative rho (up, down):  0.000E+00 7.280E-04
 
     Magnetic moment per site:
     atom:    1    charge:   12.8306    magn:    1.9061    constr:    0.0000
     atom:    2    charge:   12.8306    magn:    1.9061    constr:    0.0000
     atom:    3    charge:   12.8306    magn:    1.9061    constr:    0.0000
     atom:    4    charge:   12.7784    magn:    2.6459    constr:    0.0000
     atom:    5    charge:    4.1129    magn:    0.0479    constr:    0.0000

     total cpu time spent up to now is       48.5 secs

     total energy              =   -1345.13809708 Ry
     Harris-Foulkes estimate   =   -1345.13836814 Ry
     estimated scf accuracy    <       0.00000480 Ry

     total magnetization       =     8.93 Bohr mag/cell
     absolute magnetization    =     9.27 Bohr mag/cell

     iteration # 24     ecut=    71.00 Ry     beta=0.70
     Davidson diagonalization with overlap
     ethr =  4.63E-09,  avg # of iterations =  4.1

     negative rho (up, down):  0.000E+00 6.698E-04
 
     Magnetic moment per site:
     atom:    1    charge:   12.8314    magn:    1.8428    constr:    0.0000
     atom:    2    charge:   12.8314    magn:    1.8428    constr:    0.0000
     atom:    3    charge:   12.8314    magn:    1.8428    constr:    0.0000
     atom:    4    charge:   12.7773    magn:    2.6515    constr:    0.0000
     atom:    5    charge:    4.1103    magn:    0.0415    constr:    0.0000

     total cpu time spent up to now is       51.4 secs

     total energy              =   -1345.13820781 Ry
     Harris-Foulkes estimate   =   -1345.13827295 Ry
     estimated scf accuracy    <       0.00018742 Ry

     total magnetization       =     9.02 Bohr mag/cell
     absolute magnetization    =     9.37 Bohr mag/cell

     iteration # 25     ecut=    71.00 Ry     beta=0.70
     Davidson diagonalization with overlap
     ethr =  4.63E-09,  avg # of iterations =  4.1

     negative rho (up, down):  0.000E+00 6.599E-04
 
     Magnetic moment per site:
     atom:    1    charge:   12.8316    magn:    1.8320    constr:    0.0000
     atom:    2    charge:   12.8316    magn:    1.8320    constr:    0.0000
     atom:    3    charge:   12.8316    magn:    1.8320    constr:    0.0000
     atom:    4    charge:   12.7771    magn:    2.6524    constr:    0.0000
     atom:    5    charge:    4.1098    magn:    0.0405    constr:    0.0000

     total cpu time spent up to now is       54.1 secs

     total energy              =   -1345.13837124 Ry
     Harris-Foulkes estimate   =   -1345.13837324 Ry
     estimated scf accuracy    <       0.00000507 Ry

     total magnetization       =     8.90 Bohr mag/cell
     absolute magnetization    =     9.24 Bohr mag/cell

     iteration # 26     ecut=    71.00 Ry     beta=0.70
     Davidson diagonalization with overlap
     ethr =  4.63E-09,  avg # of iterations =  3.0

     negative rho (up, down):  0.000E+00 6.710E-04
 
     Magnetic moment per site:
     atom:    1    charge:   12.8314    magn:    1.8441    constr:    0.0000
     atom:    2    charge:   12.8314    magn:    1.8441    constr:    0.0000
     atom:    3    charge:   12.8314    magn:    1.8441    constr:    0.0000
     atom:    4    charge:   12.7773    magn:    2.6514    constr:    0.0000
     atom:    5    charge:    4.1103    magn:    0.0416    constr:    0.0000

     total cpu time spent up to now is       56.2 secs

     total energy              =   -1345.13835943 Ry
     Harris-Foulkes estimate   =   -1345.13838126 Ry
     estimated scf accuracy    <       0.00000953 Ry

     total magnetization       =     8.86 Bohr mag/cell
     absolute magnetization    =     9.20 Bohr mag/cell

     iteration # 27     ecut=    71.00 Ry     beta=0.70
     Davidson diagonalization with overlap
     ethr =  4.63E-09,  avg # of iterations =  3.0

     negative rho (up, down):  0.000E+00 6.748E-04
 
     Magnetic moment per site:
     atom:    1    charge:   12.8313    magn:    1.8483    constr:    0.0000
     atom:    2    charge:   12.8313    magn:    1.8483    constr:    0.0000
     atom:    3    charge:   12.8313    magn:    1.8483    constr:    0.0000
     atom:    4    charge:   12.7774    magn:    2.6510    constr:    0.0000
     atom:    5    charge:    4.1105    magn:    0.0421    constr:    0.0000

     total cpu time spent up to now is       58.2 secs

     total energy              =   -1345.13836837 Ry
     Harris-Foulkes estimate   =   -1345.13837241 Ry
     estimated scf accuracy    <       0.00000501 Ry

     total magnetization       =     8.91 Bohr mag/cell
     absolute magnetization    =     9.25 Bohr mag/cell

     iteration # 28     ecut=    71.00 Ry     beta=0.70
     Davidson diagonalization with overlap
     ethr =  4.63E-09,  avg # of iterations =  1.9

     negative rho (up, down):  0.000E+00 6.644E-04
 
     Magnetic moment per site:
     atom:    1    charge:   12.8315    magn:    1.8370    constr:    0.0000
     atom:    2    charge:   12.8315    magn:    1.8370    constr:    0.0000
     atom:    3    charge:   12.8315    magn:    1.8370    constr:    0.0000
     atom:    4    charge:   12.7772    magn:    2.6520    constr:    0.0000
     atom:    5    charge:    4.1101    magn:    0.0409    constr:    0.0000

     total cpu time spent up to now is       60.0 secs

     total energy              =   -1345.13836686 Ry
     Harris-Foulkes estimate   =   -1345.13836980 Ry
     estimated scf accuracy    <       0.00000460 Ry

     total magnetization       =     8.92 Bohr mag/cell
     absolute magnetization    =     9.26 Bohr mag/cell

     iteration # 29     ecut=    71.00 Ry     beta=0.70
     Davidson diagonalization with overlap
     ethr =  4.63E-09,  avg # of iterations =  3.0

     negative rho (up, down):  0.000E+00 6.672E-04
 
     Magnetic moment per site:
     atom:    1    charge:   12.8315    magn:    1.8401    constr:    0.0000
     atom:    2    charge:   12.8315    magn:    1.8401    constr:    0.0000
     atom:    3    charge:   12.8315    magn:    1.8401    constr:    0.0000
     atom:    4    charge:   12.7773    magn:    2.6517    constr:    0.0000
     atom:    5    charge:    4.1102    magn:    0.0412    constr:    0.0000

     total cpu time spent up to now is       62.1 secs

     total energy              =   -1345.13837422 Ry
     Harris-Foulkes estimate   =   -1345.13837726 Ry
     estimated scf accuracy    <       0.00000684 Ry

     total magnetization       =     8.88 Bohr mag/cell
     absolute magnetization    =     9.22 Bohr mag/cell

     iteration # 30     ecut=    71.00 Ry     beta=0.70
     Davidson diagonalization with overlap
     ethr =  4.63E-09,  avg # of iterations =  1.1

     negative rho (up, down):  0.000E+00 6.594E-04
 
     Magnetic moment per site:
     atom:    1    charge:   12.8316    magn:    1.8317    constr:    0.0000
     atom:    2    charge:   12.8316    magn:    1.8317    constr:    0.0000
     atom:    3    charge:   12.8316    magn:    1.8317    constr:    0.0000
     atom:    4    charge:   12.7771    magn:    2.6524    constr:    0.0000
     atom:    5    charge:    4.1098    magn:    0.0404    constr:    0.0000

     total cpu time spent up to now is       63.7 secs

     total energy              =   -1345.13837540 Ry
     Harris-Foulkes estimate   =   -1345.13837504 Ry
     estimated scf accuracy    <       0.00000581 Ry

     total magnetization       =     8.89 Bohr mag/cell
     absolute magnetization    =     9.23 Bohr mag/cell

     iteration # 31     ecut=    71.00 Ry     beta=0.70
     Davidson diagonalization with overlap
     ethr =  4.63E-09,  avg # of iterations =  2.9

     negative rho (up, down):  0.000E+00 6.584E-04
 
     Magnetic moment per site:
     atom:    1    charge:   12.8316    magn:    1.8306    constr:    0.0000
     atom:    2    charge:   12.8316    magn:    1.8306    constr:    0.0000
     atom:    3    charge:   12.8316    magn:    1.8306    constr:    0.0000
     atom:    4    charge:   12.7771    magn:    2.6525    constr:    0.0000
     atom:    5    charge:    4.1098    magn:    0.0403    constr:    0.0000

     total cpu time spent up to now is       65.7 secs

     total energy              =   -1345.13838245 Ry
     Harris-Foulkes estimate   =   -1345.13838158 Ry
     estimated scf accuracy    <       0.00000947 Ry

     total magnetization       =     8.86 Bohr mag/cell
     absolute magnetization    =     9.20 Bohr mag/cell

     iteration # 32     ecut=    71.00 Ry     beta=0.70
     Davidson diagonalization with overlap
     ethr =  4.63E-09,  avg # of iterations =  1.0

     negative rho (up, down):  0.000E+00 6.540E-04
 
     Magnetic moment per site:
     atom:    1    charge:   12.8316    magn:    1.8259    constr:    0.0000
     atom:    2    charge:   12.8316    magn:    1.8259    constr:    0.0000
     atom:    3    charge:   12.8316    magn:    1.8259    constr:    0.0000
     atom:    4    charge:   12.7770    magn:    2.6529    constr:    0.0000
     atom:    5    charge:    4.1096    magn:    0.0398    constr:    0.0000

     total cpu time spent up to now is       67.5 secs

     total energy              =   -1345.13838516 Ry
     Harris-Foulkes estimate   =   -1345.13838256 Ry
     estimated scf accuracy    <       0.00001022 Ry

     total magnetization       =     8.85 Bohr mag/cell
     absolute magnetization    =     9.19 Bohr mag/cell

     iteration # 33     ecut=    71.00 Ry     beta=0.70
     Davidson diagonalization with overlap
     ethr =  4.63E-09,  avg # of iterations =  2.0

     negative rho (up, down):  0.000E+00 6.974E-04
 
     Magnetic moment per site:
     atom:    1    charge:   12.8310    magn:    1.8728    constr:    0.0000
     atom:    2    charge:   12.8310    magn:    1.8728    constr:    0.0000
     atom:    3    charge:   12.8310    magn:    1.8728    constr:    0.0000
     atom:    4    charge:   12.7778    magn:    2.6489    constr:    0.0000
     atom:    5    charge:    4.1115    magn:    0.0445    constr:    0.0000

     total cpu time spent up to now is       69.5 secs

     total energy              =   -1345.13816371 Ry
     Harris-Foulkes estimate   =   -1345.13838733 Ry
     estimated scf accuracy    <       0.00001435 Ry

     total magnetization       =     8.83 Bohr mag/cell
     absolute magnetization    =     9.17 Bohr mag/cell

     iteration # 34     ecut=    71.00 Ry     beta=0.70
     Davidson diagonalization with overlap
     ethr =  4.63E-09,  avg # of iterations =  4.1

     negative rho (up, down):  0.000E+00 7.203E-04
 
     Magnetic moment per site:
     atom:    1    charge:   12.8307    magn:    1.8975    constr:    0.0000
     atom:    2    charge:   12.8307    magn:    1.8975    constr:    0.0000
     atom:    3    charge:   12.8307    magn:    1.8975    constr:    0.0000
     atom:    4    charge:   12.7783    magn:    2.6468    constr:    0.0000
     atom:    5    charge:    4.1125    magn:    0.0469    constr:    0.0000

     total cpu time spent up to now is       72.3 secs

     total energy              =   -1345.13827493 Ry
     Harris-Foulkes estimate   =   -1345.13835071 Ry
     estimated scf accuracy    <       0.00001554 Ry

     total magnetization       =     8.99 Bohr mag/cell
     absolute magnetization    =     9.33 Bohr mag/cell

     iteration # 35     ecut=    71.00 Ry     beta=0.70
     Davidson diagonalization with overlap
     ethr =  4.63E-09,  avg # of iterations =  3.5

     negative rho (up, down):  0.000E+00 6.488E-04
 
     Magnetic moment per site:
     atom:    1    charge:   12.8317    magn:    1.8201    constr:    0.0000
     atom:    2    charge:   12.8317    magn:    1.8201    constr:    0.0000
     atom:    3    charge:   12.8317    magn:    1.8201    constr:    0.0000
     atom:    4    charge:   12.7769    magn:    2.6534    constr:    0.0000
     atom:    5    charge:    4.1093    magn:    0.0393    constr:    0.0000

     total cpu time spent up to now is       74.9 secs

     total energy              =   -1345.13806546 Ry
     Harris-Foulkes estimate   =   -1345.13830256 Ry
     estimated scf accuracy    <       0.00010884 Ry

     total magnetization       =     9.02 Bohr mag/cell
     absolute magnetization    =     9.36 Bohr mag/cell

     iteration # 36     ecut=    71.00 Ry     beta=0.70
     Davidson diagonalization with overlap
     ethr =  4.63E-09,  avg # of iterations =  4.1

     negative rho (up, down):  0.000E+00 6.922E-04
 
     Magnetic moment per site:
     atom:    1    charge:   12.8311    magn:    1.8670    constr:    0.0000
     atom:    2    charge:   12.8311    magn:    1.8670    constr:    0.0000
     atom:    3    charge:   12.8311    magn:    1.8670    constr:    0.0000
     atom:    4    charge:   12.7778    magn:    2.6494    constr:    0.0000
     atom:    5    charge:    4.1113    magn:    0.0439    constr:    0.0000

     total cpu time spent up to now is       77.9 secs

     total energy              =   -1345.13815967 Ry
     Harris-Foulkes estimate   =   -1345.13839426 Ry
     estimated scf accuracy    <       0.00002171 Ry

     total magnetization       =     8.80 Bohr mag/cell
     absolute magnetization    =     9.14 Bohr mag/cell

     iteration # 37     ecut=    71.00 Ry     beta=0.70
     Davidson diagonalization with overlap
     ethr =  4.63E-09,  avg # of iterations =  4.1

     negative rho (up, down):  0.000E+00 6.595E-04
 
     Magnetic moment per site:
     atom:    1    charge:   12.8316    magn:    1.8316    constr:    0.0000
     atom:    2    charge:   12.8316    magn:    1.8316    constr:    0.0000
     atom:    3    charge:   12.8316    magn:    1.8316    constr:    0.0000
     atom:    4    charge:   12.7771    magn:    2.6525    constr:    0.0000
     atom:    5    charge:    4.1098    magn:    0.0404    constr:    0.0000

     total cpu time spent up to now is       80.5 secs

     total energy              =   -1345.13829109 Ry
     Harris-Foulkes estimate   =   -1345.13835669 Ry
     estimated scf accuracy    <       0.00001002 Ry

     total magnetization       =     8.98 Bohr mag/cell
     absolute magnetization    =     9.32 Bohr mag/cell

     iteration # 38     ecut=    71.00 Ry     beta=0.70
     Davidson diagonalization with overlap
     ethr =  4.63E-09,  avg # of iterations =  3.9

     negative rho (up, down):  0.000E+00 6.584E-04
 
     Magnetic moment per site:
     atom:    1    charge:   12.8316    magn:    1.8305    constr:    0.0000
     atom:    2    charge:   12.8316    magn:    1.8305    constr:    0.0000
     atom:    3    charge:   12.8316    magn:    1.8305    constr:    0.0000
     atom:    4    charge:   12.7771    magn:    2.6526    constr:    0.0000
     atom:    5    charge:    4.1098    magn:    0.0403    constr:    0.0000

     total cpu time spent up to now is       83.1 secs

     total energy              =   -1345.13838254 Ry
     Harris-Foulkes estimate   =   -1345.13838162 Ry
     estimated scf accuracy    <       0.00000967 Ry

     total magnetization       =     8.86 Bohr mag/cell
     absolute magnetization    =     9.20 Bohr mag/cell

     iteration # 39     ecut=    71.00 Ry     beta=0.70
     Davidson diagonalization with overlap
     ethr =  4.63E-09,  avg # of iterations =  1.0

     negative rho (up, down):  0.000E+00 6.553E-04
 
     Magnetic moment per site:
     atom:    1    charge:   12.8316    magn:    1.8271    constr:    0.0000
     atom:    2    charge:   12.8316    magn:    1.8271    constr:    0.0000
     atom:    3    charge:   12.8316    magn:    1.8271    constr:    0.0000
     atom:    4    charge:   12.7771    magn:    2.6529    constr:    0.0000
     atom:    5    charge:    4.1096    magn:    0.0400    constr:    0.0000

     total cpu time spent up to now is       84.7 secs

     total energy              =   -1345.13838489 Ry
     Harris-Foulkes estimate   =   -1345.13838266 Ry
     estimated scf accuracy    <       0.00001049 Ry

     total magnetization       =     8.85 Bohr mag/cell
     absolute magnetization    =     9.19 Bohr mag/cell

     iteration # 40     ecut=    71.00 Ry     beta=0.70
     Davidson diagonalization with overlap
     ethr =  4.63E-09,  avg # of iterations =  1.8

     negative rho (up, down):  0.000E+00 6.532E-04
 
     Magnetic moment per site:
     atom:    1    charge:   12.8317    magn:    1.8248    constr:    0.0000
     atom:    2    charge:   12.8317    magn:    1.8248    constr:    0.0000
     atom:    3    charge:   12.8317    magn:    1.8248    constr:    0.0000
     atom:    4    charge:   12.7770    magn:    2.6531    constr:    0.0000
     atom:    5    charge:    4.1096    magn:    0.0398    constr:    0.0000

     total cpu time spent up to now is       86.5 secs

     total energy              =   -1345.13838795 Ry
     Harris-Foulkes estimate   =   -1345.13838599 Ry
     estimated scf accuracy    <       0.00001333 Ry

     total magnetization       =     8.84 Bohr mag/cell
     absolute magnetization    =     9.18 Bohr mag/cell

     iteration # 41     ecut=    71.00 Ry     beta=0.70
     Davidson diagonalization with overlap
     ethr =  4.63E-09,  avg # of iterations =  1.0

     negative rho (up, down):  0.000E+00 6.419E-04
 
     Magnetic moment per site:
     atom:    1    charge:   12.8318    magn:    1.8125    constr:    0.0000
     atom:    2    charge:   12.8318    magn:    1.8125    constr:    0.0000
     atom:    3    charge:   12.8318    magn:    1.8125    constr:    0.0000
     atom:    4    charge:   12.7768    magn:    2.6541    constr:    0.0000
     atom:    5    charge:    4.1090    magn:    0.0386    constr:    0.0000

     total cpu time spent up to now is       88.1 secs

     total energy              =   -1345.13839050 Ry
     Harris-Foulkes estimate   =   -1345.13838847 Ry
     estimated scf accuracy    <       0.00001551 Ry

     total magnetization       =     8.83 Bohr mag/cell
     absolute magnetization    =     9.17 Bohr mag/cell

     iteration # 42     ecut=    71.00 Ry     beta=0.70
     Davidson diagonalization with overlap
     ethr =  4.63E-09,  avg # of iterations =  3.1

     negative rho (up, down):  0.000E+00 6.538E-04
 
     Magnetic moment per site:
     atom:    1    charge:   12.8316    magn:    1.8255    constr:    0.0000
     atom:    2    charge:   12.8316    magn:    1.8255    constr:    0.0000
     atom:    3    charge:   12.8316    magn:    1.8255    constr:    0.0000
     atom:    4    charge:   12.7770    magn:    2.6530    constr:    0.0000
     atom:    5    charge:    4.1096    magn:    0.0398    constr:    0.0000

     total cpu time spent up to now is       90.3 secs

     total energy              =   -1345.13837038 Ry
     Harris-Foulkes estimate   =   -1345.13840588 Ry
     estimated scf accuracy    <       0.00003627 Ry

     total magnetization       =     8.76 Bohr mag/cell
     absolute magnetization    =     9.11 Bohr mag/cell

     iteration # 43     ecut=    71.00 Ry     beta=0.70
     Davidson diagonalization with overlap
     ethr =  4.63E-09,  avg # of iterations =  3.0

     negative rho (up, down):  0.000E+00 6.543E-04
 
     Magnetic moment per site:
     atom:    1    charge:   12.8316    magn:    1.8260    constr:    0.0000
     atom:    2    charge:   12.8316    magn:    1.8260    constr:    0.0000
     atom:    3    charge:   12.8316    magn:    1.8260    constr:    0.0000
     atom:    4    charge:   12.7770    magn:    2.6529    constr:    0.0000
     atom:    5    charge:    4.1096    magn:    0.0399    constr:    0.0000

     total cpu time spent up to now is       92.5 secs

     total energy              =   -1345.13838711 Ry
     Harris-Foulkes estimate   =   -1345.13838774 Ry
     estimated scf accuracy    <       0.00001497 Ry

     total magnetization       =     8.83 Bohr mag/cell
     absolute magnetization    =     9.17 Bohr mag/cell

     iteration # 44     ecut=    71.00 Ry     beta=0.70
     Davidson diagonalization with overlap
     ethr =  4.63E-09,  avg # of iterations =  1.0

     negative rho (up, down):  0.000E+00 7.338E-04
 
     Magnetic moment per site:
     atom:    1    charge:   12.8305    magn:    1.9123    constr:    0.0000
     atom:    2    charge:   12.8305    magn:    1.9123    constr:    0.0000
     atom:    3    charge:   12.8305    magn:    1.9123    constr:    0.0000
     atom:    4    charge:   12.7785    magn:    2.6454    constr:    0.0000
     atom:    5    charge:    4.1131    magn:    0.0484    constr:    0.0000

     total cpu time spent up to now is       94.3 secs

     total energy              =   -1345.13771155 Ry
     Harris-Foulkes estimate   =   -1345.13838714 Ry
     estimated scf accuracy    <       0.00001443 Ry

     total magnetization       =     8.83 Bohr mag/cell
     absolute magnetization    =     9.17 Bohr mag/cell

     iteration # 45     ecut=    71.00 Ry     beta=0.70
     Davidson diagonalization with overlap
     ethr =  4.63E-09,  avg # of iterations =  4.2

     negative rho (up, down):  0.000E+00 6.309E-04
 
     Magnetic moment per site:
     atom:    1    charge:   12.8320    magn:    1.8006    constr:    0.0000
     atom:    2    charge:   12.8320    magn:    1.8006    constr:    0.0000
     atom:    3    charge:   12.8320    magn:    1.8006    constr:    0.0000
     atom:    4    charge:   12.7766    magn:    2.6551    constr:    0.0000
     atom:    5    charge:    4.1086    magn:    0.0374    constr:    0.0000

     total cpu time spent up to now is       97.3 secs

     total energy              =   -1345.13779356 Ry
     Harris-Foulkes estimate   =   -1345.13824635 Ry
     estimated scf accuracy    <       0.00026931 Ry

     total magnetization       =     9.02 Bohr mag/cell
     absolute magnetization    =     9.37 Bohr mag/cell

     iteration # 46     ecut=    71.00 Ry     beta=0.70
     Davidson diagonalization with overlap
     ethr =  4.63E-09,  avg # of iterations =  4.2

     negative rho (up, down):  0.000E+00 6.499E-04
 
     Magnetic moment per site:
     atom:    1    charge:   12.8317    magn:    1.8212    constr:    0.0000
     atom:    2    charge:   12.8317    magn:    1.8212    constr:    0.0000
     atom:    3    charge:   12.8317    magn:    1.8212    constr:    0.0000
     atom:    4    charge:   12.7770    magn:    2.6534    constr:    0.0000
     atom:    5    charge:    4.1094    magn:    0.0394    constr:    0.0000

     total cpu time spent up to now is      100.3 secs

     total energy              =   -1345.13834655 Ry
     Harris-Foulkes estimate   =   -1345.13843079 Ry
     estimated scf accuracy    <       0.00007470 Ry

     total magnetization       =     8.70 Bohr mag/cell
     absolute magnetization    =     9.05 Bohr mag/cell

     iteration # 47     ecut=    71.00 Ry     beta=0.70
     Davidson diagonalization with overlap
     ethr =  4.63E-09,  avg # of iterations =  3.4

     negative rho (up, down):  0.000E+00 6.579E-04
 
     Magnetic moment per site:
     atom:    1    charge:   12.8316    magn:    1.8300    constr:    0.0000
     atom:    2    charge:   12.8316    magn:    1.8300    constr:    0.0000
     atom:    3    charge:   12.8316    magn:    1.8300    constr:    0.0000
     atom:    4    charge:   12.7771    magn:    2.6526    constr:    0.0000
     atom:    5    charge:    4.1098    magn:    0.0403    constr:    0.0000

     total cpu time spent up to now is      102.7 secs

     total energy              =   -1345.13837556 Ry
     Harris-Foulkes estimate   =   -1345.13839283 Ry
     estimated scf accuracy    <       0.00002035 Ry

     total magnetization       =     8.81 Bohr mag/cell
     absolute magnetization    =     9.15 Bohr mag/cell

     iteration # 48     ecut=    71.00 Ry     beta=0.70
     Davidson diagonalization with overlap
     ethr =  4.63E-09,  avg # of iterations =  2.9

     negative rho (up, down):  0.000E+00 6.526E-04
 
     Magnetic moment per site:
     atom:    1    charge:   12.8317    magn:    1.8242    constr:    0.0000
     atom:    2    charge:   12.8317    magn:    1.8242    constr:    0.0000
     atom:    3    charge:   12.8317    magn:    1.8242    constr:    0.0000
     atom:    4    charge:   12.7770    magn:    2.6531    constr:    0.0000
     atom:    5    charge:    4.1095    magn:    0.0397    constr:    0.0000

     total cpu time spent up to now is      104.7 secs

     total energy              =   -1345.13838598 Ry
     Harris-Foulkes estimate   =   -1345.13838313 Ry
     estimated scf accuracy    <       0.00001089 Ry

     total magnetization       =     8.85 Bohr mag/cell
     absolute magnetization    =     9.19 Bohr mag/cell

     iteration # 49     ecut=    71.00 Ry     beta=0.70
     Davidson diagonalization with overlap
     ethr =  4.63E-09,  avg # of iterations =  2.1

     negative rho (up, down):  0.000E+00 6.503E-04
 
     Magnetic moment per site:
     atom:    1    charge:   12.8317    magn:    1.8217    constr:    0.0000
     atom:    2    charge:   12.8317    magn:    1.8217    constr:    0.0000
     atom:    3    charge:   12.8317    magn:    1.8217    constr:    0.0000
     atom:    4    charge:   12.7770    magn:    2.6533    constr:    0.0000
     atom:    5    charge:    4.1094    magn:    0.0395    constr:    0.0000

     total cpu time spent up to now is      106.5 secs

     total energy              =   -1345.13839162 Ry
     Harris-Foulkes estimate   =   -1345.13838923 Ry
     estimated scf accuracy    <       0.00001641 Ry

     total magnetization       =     8.82 Bohr mag/cell
     absolute magnetization    =     9.16 Bohr mag/cell

     iteration # 50     ecut=    71.00 Ry     beta=0.70
     Davidson diagonalization with overlap
     ethr =  4.63E-09,  avg # of iterations =  1.0

     negative rho (up, down):  0.000E+00 6.503E-04
 
     Magnetic moment per site:
     atom:    1    charge:   12.8317    magn:    1.8217    constr:    0.0000
     atom:    2    charge:   12.8317    magn:    1.8217    constr:    0.0000
     atom:    3    charge:   12.8317    magn:    1.8217    constr:    0.0000
     atom:    4    charge:   12.7770    magn:    2.6533    constr:    0.0000
     atom:    5    charge:    4.1094    magn:    0.0395    constr:    0.0000

     total cpu time spent up to now is      108.2 secs

     total energy              =   -1345.13839218 Ry
     Harris-Foulkes estimate   =   -1345.13839224 Ry
     estimated scf accuracy    <       0.00001951 Ry

     total magnetization       =     8.81 Bohr mag/cell
     absolute magnetization    =     9.15 Bohr mag/cell

     iteration # 51     ecut=    71.00 Ry     beta=0.70
     Davidson diagonalization with overlap
     ethr =  4.63E-09,  avg # of iterations =  1.0

     negative rho (up, down):  0.000E+00 6.499E-04
 
     Magnetic moment per site:
     atom:    1    charge:   12.8317    magn:    1.8212    constr:    0.0000
     atom:    2    charge:   12.8317    magn:    1.8212    constr:    0.0000
     atom:    3    charge:   12.8317    magn:    1.8212    constr:    0.0000
     atom:    4    charge:   12.7770    magn:    2.6534    constr:    0.0000
     atom:    5    charge:    4.1094    magn:    0.0395    constr:    0.0000

     total cpu time spent up to now is      109.8 secs

     total energy              =   -1345.13839283 Ry
     Harris-Foulkes estimate   =   -1345.13839219 Ry
     estimated scf accuracy    <       0.00001943 Ry

     total magnetization       =     8.81 Bohr mag/cell
     absolute magnetization    =     9.15 Bohr mag/cell

     iteration # 52     ecut=    71.00 Ry     beta=0.70
     Davidson diagonalization with overlap
     ethr =  4.63E-09,  avg # of iterations =  1.0

     negative rho (up, down):  0.000E+00 6.505E-04
 
     Magnetic moment per site:
     atom:    1    charge:   12.8317    magn:    1.8219    constr:    0.0000
     atom:    2    charge:   12.8317    magn:    1.8219    constr:    0.0000
     atom:    3    charge:   12.8317    magn:    1.8219    constr:    0.0000
     atom:    4    charge:   12.7770    magn:    2.6533    constr:    0.0000
     atom:    5    charge:    4.1094    magn:    0.0395    constr:    0.0000

     total cpu time spent up to now is      111.5 secs

     total energy              =   -1345.13839193 Ry
     Harris-Foulkes estimate   =   -1345.13839287 Ry
     estimated scf accuracy    <       0.00002040 Ry

     total magnetization       =     8.81 Bohr mag/cell
     absolute magnetization    =     9.15 Bohr mag/cell

     iteration # 53     ecut=    71.00 Ry     beta=0.70
     Davidson diagonalization with overlap
     ethr =  4.63E-09,  avg # of iterations =  1.0

     negative rho (up, down):  0.000E+00 6.481E-04
 
     Magnetic moment per site:
     atom:    1    charge:   12.8317    magn:    1.8192    constr:    0.0000
     atom:    2    charge:   12.8317    magn:    1.8192    constr:    0.0000
     atom:    3    charge:   12.8317    magn:    1.8192    constr:    0.0000
     atom:    4    charge:   12.7769    magn:    2.6536    constr:    0.0000
     atom:    5    charge:    4.1093    magn:    0.0393    constr:    0.0000

     total cpu time spent up to now is      113.1 secs

     total energy              =   -1345.13839476 Ry
     Harris-Foulkes estimate   =   -1345.13839198 Ry
     estimated scf accuracy    <       0.00001941 Ry

     total magnetization       =     8.81 Bohr mag/cell
     absolute magnetization    =     9.15 Bohr mag/cell

     iteration # 54     ecut=    71.00 Ry     beta=0.70
     Davidson diagonalization with overlap
     ethr =  4.63E-09,  avg # of iterations =  1.0

     negative rho (up, down):  0.000E+00 6.766E-04
 
     Magnetic moment per site:
     atom:    1    charge:   12.8313    magn:    1.8502    constr:    0.0000
     atom:    2    charge:   12.8313    magn:    1.8502    constr:    0.0000
     atom:    3    charge:   12.8313    magn:    1.8502    constr:    0.0000
     atom:    4    charge:   12.7774    magn:    2.6509    constr:    0.0000
     atom:    5    charge:    4.1106    magn:    0.0424    constr:    0.0000

     total cpu time spent up to now is      114.7 secs

     total energy              =   -1345.13827774 Ry
     Harris-Foulkes estimate   =   -1345.13839545 Ry
     estimated scf accuracy    <       0.00002324 Ry

     total magnetization       =     8.80 Bohr mag/cell
     absolute magnetization    =     9.14 Bohr mag/cell

     iteration # 55     ecut=    71.00 Ry     beta=0.70
     Davidson diagonalization with overlap
     ethr =  4.63E-09,  avg # of iterations =  3.9

     negative rho (up, down):  0.000E+00 6.850E-04
 
     Magnetic moment per site:
     atom:    1    charge:   12.8312    magn:    1.8594    constr:    0.0000
     atom:    2    charge:   12.8312    magn:    1.8594    constr:    0.0000
     atom:    3    charge:   12.8312    magn:    1.8594    constr:    0.0000
     atom:    4    charge:   12.7776    magn:    2.6501    constr:    0.0000
     atom:    5    charge:    4.1110    magn:    0.0432    constr:    0.0000

     total cpu time spent up to now is      117.3 secs

     total energy              =   -1345.13835647 Ry
     Harris-Foulkes estimate   =   -1345.13836855 Ry
     estimated scf accuracy    <       0.00000428 Ry

     total magnetization       =     8.93 Bohr mag/cell
     absolute magnetization    =     9.27 Bohr mag/cell

     iteration # 56     ecut=    71.00 Ry     beta=0.70
     Davidson diagonalization with overlap
     ethr =  4.63E-09,  avg # of iterations =  2.9

     negative rho (up, down):  0.000E+00 7.046E-04
 
     Magnetic moment per site:
     atom:    1    charge:   12.8309    magn:    1.8807    constr:    0.0000
     atom:    2    charge:   12.8309    magn:    1.8807    constr:    0.0000
     atom:    3    charge:   12.8309    magn:    1.8807    constr:    0.0000
     atom:    4    charge:   12.7780    magn:    2.6482    constr:    0.0000
     atom:    5    charge:    4.1118    magn:    0.0452    constr:    0.0000

     total cpu time spent up to now is      119.4 secs

     total energy              =   -1345.13831242 Ry
     Harris-Foulkes estimate   =   -1345.13836271 Ry
     estimated scf accuracy    <       0.00000592 Ry

     total magnetization       =     8.96 Bohr mag/cell
     absolute magnetization    =     9.30 Bohr mag/cell

     iteration # 57     ecut=    71.00 Ry     beta=0.70
     Davidson diagonalization with overlap
     ethr =  4.63E-09,  avg # of iterations =  3.3

     negative rho (up, down):  0.000E+00 6.285E-04
 
     Magnetic moment per site:
     atom:    1    charge:   12.8320    magn:    1.7978    constr:    0.0000
     atom:    2    charge:   12.8320    magn:    1.7978    constr:    0.0000
     atom:    3    charge:   12.8320    magn:    1.7978    constr:    0.0000
     atom:    4    charge:   12.7766    magn:    2.6555    constr:    0.0000
     atom:    5    charge:    4.1085    magn:    0.0373    constr:    0.0000

     total cpu time spent up to now is      121.9 secs

     total energy              =   -1345.13793592 Ry
     Harris-Foulkes estimate   =   -1345.13834010 Ry
     estimated scf accuracy    <       0.00003007 Ry

     total magnetization       =     9.00 Bohr mag/cell
     absolute magnetization    =     9.34 Bohr mag/cell

     iteration # 58     ecut=    71.00 Ry     beta=0.70
     Davidson diagonalization with overlap
     ethr =  4.63E-09,  avg # of iterations =  4.2

     negative rho (up, down):  0.000E+00 6.406E-04
 
     Magnetic moment per site:
     atom:    1    charge:   12.8318    magn:    1.8111    constr:    0.0000
     atom:    2    charge:   12.8318    magn:    1.8111    constr:    0.0000
     atom:    3    charge:   12.8318    magn:    1.8111    constr:    0.0000
     atom:    4    charge:   12.7768    magn:    2.6544    constr:    0.0000
     atom:    5    charge:    4.1090    magn:    0.0386    constr:    0.0000

     total cpu time spent up to now is      124.9 secs

     total energy              =   -1345.13838844 Ry
     Harris-Foulkes estimate   =   -1345.13843779 Ry
     estimated scf accuracy    <       0.00008549 Ry

     total magnetization       =     8.69 Bohr mag/cell
     absolute magnetization    =     9.03 Bohr mag/cell

     iteration # 59     ecut=    71.00 Ry     beta=0.70
     Davidson diagonalization with overlap
     ethr =  4.63E-09,  avg # of iterations =  3.0

     negative rho (up, down):  0.000E+00 6.754E-04
 
     Magnetic moment per site:
     atom:    1    charge:   12.8313    magn:    1.8490    constr:    0.0000
     atom:    2    charge:   12.8313    magn:    1.8490    constr:    0.0000
     atom:    3    charge:   12.8313    magn:    1.8490    constr:    0.0000
     atom:    4    charge:   12.7774    magn:    2.6510    constr:    0.0000
     atom:    5    charge:    4.1106    magn:    0.0422    constr:    0.0000

     total cpu time spent up to now is      127.2 secs

     total energy              =   -1345.13822781 Ry
     Harris-Foulkes estimate   =   -1345.13840821 Ry
     estimated scf accuracy    <       0.00003861 Ry

     total magnetization       =     8.76 Bohr mag/cell
     absolute magnetization    =     9.10 Bohr mag/cell

     iteration # 60     ecut=    71.00 Ry     beta=0.70
     Davidson diagonalization with overlap
     ethr =  4.63E-09,  avg # of iterations =  3.9

     negative rho (up, down):  0.000E+00 6.823E-04
 
     Magnetic moment per site:
     atom:    1    charge:   12.8312    magn:    1.8564    constr:    0.0000
     atom:    2    charge:   12.8312    magn:    1.8564    constr:    0.0000
     atom:    3    charge:   12.8312    magn:    1.8564    constr:    0.0000
     atom:    4    charge:   12.7775    magn:    2.6504    constr:    0.0000
     atom:    5    charge:    4.1109    magn:    0.0430    constr:    0.0000

     total cpu time spent up to now is      129.8 secs

     total energy              =   -1345.13836059 Ry
     Harris-Foulkes estimate   =   -1345.13836931 Ry
     estimated scf accuracy    <       0.00000441 Ry

     total magnetization       =     8.93 Bohr mag/cell
     absolute magnetization    =     9.26 Bohr mag/cell

     iteration # 61     ecut=    71.00 Ry     beta=0.70
     Davidson diagonalization with overlap
     ethr =  4.63E-09,  avg # of iterations =  2.7

     negative rho (up, down):  0.000E+00 6.995E-04
 
     Magnetic moment per site:
     atom:    1    charge:   12.8310    magn:    1.8750    constr:    0.0000
     atom:    2    charge:   12.8310    magn:    1.8750    constr:    0.0000
     atom:    3    charge:   12.8310    magn:    1.8750    constr:    0.0000
     atom:    4    charge:   12.7779    magn:    2.6487    constr:    0.0000
     atom:    5    charge:    4.1116    magn:    0.0448    constr:    0.0000

     total cpu time spent up to now is      131.8 secs

     total energy              =   -1345.13832536 Ry
     Harris-Foulkes estimate   =   -1345.13836474 Ry
     estimated scf accuracy    <       0.00000503 Ry

     total magnetization       =     8.95 Bohr mag/cell
     absolute magnetization    =     9.29 Bohr mag/cell

     iteration # 62     ecut=    71.00 Ry     beta=0.70
     Davidson diagonalization with overlap
     ethr =  4.63E-09,  avg # of iterations =  3.2

     negative rho (up, down):  0.000E+00 6.658E-04
 
     Magnetic moment per site:
     atom:    1    charge:   12.8315    magn:    1.8385    constr:    0.0000
     atom:    2    charge:   12.8315    magn:    1.8385    constr:    0.0000
     atom:    3    charge:   12.8315    magn:    1.8385    constr:    0.0000
     atom:    4    charge:   12.7773    magn:    2.6519    constr:    0.0000
     atom:    5    charge:    4.1101    magn:    0.0412    constr:    0.0000

     total cpu time spent up to now is      134.1 secs

     total energy              =   -1345.13828983 Ry
     Harris-Foulkes estimate   =   -1345.13834806 Ry
     estimated scf accuracy    <       0.00001861 Ry

     total magnetization       =     9.00 Bohr mag/cell
     absolute magnetization    =     9.33 Bohr mag/cell

     iteration # 63     ecut=    71.00 Ry     beta=0.70
     Davidson diagonalization with overlap
     ethr =  4.63E-09,  avg # of iterations =  3.9

     negative rho (up, down):  0.000E+00 6.593E-04
 
     Magnetic moment per site:
     atom:    1    charge:   12.8316    magn:    1.8314    constr:    0.0000
     atom:    2    charge:   12.8316    magn:    1.8314    constr:    0.0000
     atom:    3    charge:   12.8316    magn:    1.8314    constr:    0.0000
     atom:    4    charge:   12.7771    magn:    2.6526    constr:    0.0000
     atom:    5    charge:    4.1098    magn:    0.0405    constr:    0.0000

     total cpu time spent up to now is      137.0 secs

     total energy              =   -1345.13837726 Ry
     Harris-Foulkes estimate   =   -1345.13837611 Ry
     estimated scf accuracy    <       0.00000614 Ry

     total magnetization       =     8.89 Bohr mag/cell
     absolute magnetization    =     9.22 Bohr mag/cell

     iteration # 64     ecut=    71.00 Ry     beta=0.70
     Davidson diagonalization with overlap
     ethr =  4.63E-09,  avg # of iterations =  2.6

     negative rho (up, down):  0.000E+00 6.608E-04
 
     Magnetic moment per site:
     atom:    1    charge:   12.8315    magn:    1.8330    constr:    0.0000
     atom:    2    charge:   12.8315    magn:    1.8330    constr:    0.0000
     atom:    3    charge:   12.8315    magn:    1.8330    constr:    0.0000
     atom:    4    charge:   12.7772    magn:    2.6524    constr:    0.0000
     atom:    5    charge:    4.1099    magn:    0.0407    constr:    0.0000

     total cpu time spent up to now is      138.9 secs

     total energy              =   -1345.13838017 Ry
     Harris-Foulkes estimate   =   -1345.13838180 Ry
     estimated scf accuracy    <       0.00000961 Ry

     total magnetization       =     8.86 Bohr mag/cell
     absolute magnetization    =     9.20 Bohr mag/cell

     iteration # 65     ecut=    71.00 Ry     beta=0.70
     Davidson diagonalization with overlap
     ethr =  4.63E-09,  avg # of iterations =  1.0

     negative rho (up, down):  0.000E+00 6.537E-04
 
     Magnetic moment per site:
     atom:    1    charge:   12.8316    magn:    1.8253    constr:    0.0000
     atom:    2    charge:   12.8316    magn:    1.8253    constr:    0.0000
     atom:    3    charge:   12.8316    magn:    1.8253    constr:    0.0000
     atom:    4    charge:   12.7770    magn:    2.6531    constr:    0.0000
     atom:    5    charge:    4.1096    magn:    0.0399    constr:    0.0000

     total cpu time spent up to now is      140.6 secs

     total energy              =   -1345.13838237 Ry
     Harris-Foulkes estimate   =   -1345.13838041 Ry
     estimated scf accuracy    <       0.00000867 Ry

     total magnetization       =     8.86 Bohr mag/cell
     absolute magnetization    =     9.20 Bohr mag/cell

     iteration # 66     ecut=    71.00 Ry     beta=0.70
     Davidson diagonalization with overlap
     ethr =  4.63E-09,  avg # of iterations =  2.7

     negative rho (up, down):  0.000E+00 6.489E-04
 
     Magnetic moment per site:
     atom:    1    charge:   12.8317    magn:    1.8201    constr:    0.0000
     atom:    2    charge:   12.8317    magn:    1.8201    constr:    0.0000
     atom:    3    charge:   12.8317    magn:    1.8201    constr:    0.0000
     atom:    4    charge:   12.7769    magn:    2.6536    constr:    0.0000
     atom:    5    charge:    4.1094    magn:    0.0394    constr:    0.0000

     total cpu time spent up to now is      142.5 secs

     total energy              =   -1345.13839147 Ry
     Harris-Foulkes estimate   =   -1345.13838781 Ry
     estimated scf accuracy    <       0.00001474 Ry

     total magnetization       =     8.83 Bohr mag/cell
     absolute magnetization    =     9.17 Bohr mag/cell

     iteration # 67     ecut=    71.00 Ry     beta=0.70
     Davidson diagonalization with overlap
     ethr =  4.63E-09,  avg # of iterations =  2.1

     negative rho (up, down):  0.000E+00 6.501E-04
 
     Magnetic moment per site:
     atom:    1    charge:   12.8317    magn:    1.8214    constr:    0.0000
     atom:    2    charge:   12.8317    magn:    1.8214    constr:    0.0000
     atom:    3    charge:   12.8317    magn:    1.8214    constr:    0.0000
     atom:    4    charge:   12.7770    magn:    2.6534    constr:    0.0000
     atom:    5    charge:    4.1094    magn:    0.0395    constr:    0.0000

     total cpu time spent up to now is      144.3 secs

     total energy              =   -1345.13839237 Ry
     Harris-Foulkes estimate   =   -1345.13839421 Ry
     estimated scf accuracy    <       0.00002149 Ry

     total magnetization       =     8.80 Bohr mag/cell
     absolute magnetization    =     9.14 Bohr mag/cell

     iteration # 68     ecut=    71.00 Ry     beta=0.70
     Davidson diagonalization with overlap
     ethr =  4.63E-09,  avg # of iterations =  1.0

     negative rho (up, down):  0.000E+00 6.465E-04
 
     Magnetic moment per site:
     atom:    1    charge:   12.8318    magn:    1.8174    constr:    0.0000
     atom:    2    charge:   12.8318    magn:    1.8174    constr:    0.0000
     atom:    3    charge:   12.8318    magn:    1.8174    constr:    0.0000
     atom:    4    charge:   12.7769    magn:    2.6538    constr:    0.0000
     atom:    5    charge:    4.1093    magn:    0.0391    constr:    0.0000

     total cpu time spent up to now is      146.0 secs

     total energy              =   -1345.13839638 Ry
     Harris-Foulkes estimate   =   -1345.13839255 Ry
     estimated scf accuracy    <       0.00001964 Ry

     total magnetization       =     8.81 Bohr mag/cell
     absolute magnetization    =     9.15 Bohr mag/cell

     iteration # 69     ecut=    71.00 Ry     beta=0.70
     Davidson diagonalization with overlap
     ethr =  4.63E-09,  avg # of iterations =  1.3

     negative rho (up, down):  0.000E+00 6.403E-04
 
     Magnetic moment per site:
     atom:    1    charge:   12.8318    magn:    1.8107    constr:    0.0000
     atom:    2    charge:   12.8318    magn:    1.8107    constr:    0.0000
     atom:    3    charge:   12.8318    magn:    1.8107    constr:    0.0000
     atom:    4    charge:   12.7768    magn:    2.6544    constr:    0.0000
     atom:    5    charge:    4.1090    magn:    0.0385    constr:    0.0000

     total cpu time spent up to now is      147.9 secs

     total energy              =   -1345.13840416 Ry
     Harris-Foulkes estimate   =   -1345.13839793 Ry
     estimated scf accuracy    <       0.00002574 Ry

     total magnetization       =     8.79 Bohr mag/cell
     absolute magnetization    =     9.13 Bohr mag/cell

     iteration # 70     ecut=    71.00 Ry     beta=0.70
     Davidson diagonalization with overlap
     ethr =  4.63E-09,  avg # of iterations =  2.5

     negative rho (up, down):  0.000E+00 6.866E-04
 
     Magnetic moment per site:
     atom:    1    charge:   12.8312    magn:    1.8611    constr:    0.0000
     atom:    2    charge:   12.8312    magn:    1.8611    constr:    0.0000
     atom:    3    charge:   12.8312    magn:    1.8611    constr:    0.0000
     atom:    4    charge:   12.7776    magn:    2.6499    constr:    0.0000
     atom:    5    charge:    4.1111    magn:    0.0434    constr:    0.0000

     total cpu time spent up to now is      150.0 secs

     total energy              =   -1345.13811881 Ry
     Harris-Foulkes estimate   =   -1345.13840894 Ry
     estimated scf accuracy    <       0.00004035 Ry

     total magnetization       =     8.76 Bohr mag/cell
     absolute magnetization    =     9.10 Bohr mag/cell

     iteration # 71     ecut=    71.00 Ry     beta=0.70
     Davidson diagonalization with overlap
     ethr =  4.63E-09,  avg # of iterations =  4.1

     negative rho (up, down):  0.000E+00 6.807E-04
 
     Magnetic moment per site:
     atom:    1    charge:   12.8313    magn:    1.8546    constr:    0.0000
     atom:    2    charge:   12.8313    magn:    1.8546    constr:    0.0000
     atom:    3    charge:   12.8313    magn:    1.8546    constr:    0.0000
     atom:    4    charge:   12.7775    magn:    2.6505    constr:    0.0000
     atom:    5    charge:    4.1108    magn:    0.0428    constr:    0.0000

     total cpu time spent up to now is      152.8 secs

     total energy              =   -1345.13836298 Ry
     Harris-Foulkes estimate   =   -1345.13836143 Ry
     estimated scf accuracy    <       0.00000628 Ry

     total magnetization       =     8.96 Bohr mag/cell
     absolute magnetization    =     9.30 Bohr mag/cell

     iteration # 72     ecut=    71.00 Ry     beta=0.70
     Davidson diagonalization with overlap
     ethr =  4.63E-09,  avg # of iterations =  2.5

     negative rho (up, down):  0.000E+00 6.824E-04
 
     Magnetic moment per site:
     atom:    1    charge:   12.8312    magn:    1.8564    constr:    0.0000
     atom:    2    charge:   12.8312    magn:    1.8564    constr:    0.0000
     atom:    3    charge:   12.8312    magn:    1.8564    constr:    0.0000
     atom:    4    charge:   12.7775    magn:    2.6504    constr:    0.0000
     atom:    5    charge:    4.1109    magn:    0.0429    constr:    0.0000

     total cpu time spent up to now is      154.9 secs

     total energy              =   -1345.13836448 Ry
     Harris-Foulkes estimate   =   -1345.13836589 Ry
     estimated scf accuracy    <       0.00000468 Ry

     total magnetization       =     8.94 Bohr mag/cell
     absolute magnetization    =     9.28 Bohr mag/cell

     iteration # 73     ecut=    71.00 Ry     beta=0.70
     Davidson diagonalization with overlap
     ethr =  4.63E-09,  avg # of iterations =  1.0

     negative rho (up, down):  0.000E+00 6.882E-04
 
     Magnetic moment per site:
     atom:    1    charge:   12.8312    magn:    1.8627    constr:    0.0000
     atom:    2    charge:   12.8312    magn:    1.8627    constr:    0.0000
     atom:    3    charge:   12.8312    magn:    1.8627    constr:    0.0000
     atom:    4    charge:   12.7777    magn:    2.6498    constr:    0.0000
     atom:    5    charge:    4.1111    magn:    0.0435    constr:    0.0000

     total cpu time spent up to now is      156.6 secs

     total energy              =   -1345.13835747 Ry
     Harris-Foulkes estimate   =   -1345.13836472 Ry
     estimated scf accuracy    <       0.00000504 Ry

     total magnetization       =     8.95 Bohr mag/cell
     absolute magnetization    =     9.29 Bohr mag/cell

     iteration # 74     ecut=    71.00 Ry     beta=0.70
     Davidson diagonalization with overlap
     ethr =  4.63E-09,  avg # of iterations =  2.2

     negative rho (up, down):  0.000E+00 6.931E-04
 
     Magnetic moment per site:
     atom:    1    charge:   12.8311    magn:    1.8680    constr:    0.0000
     atom:    2    charge:   12.8311    magn:    1.8680    constr:    0.0000
     atom:    3    charge:   12.8311    magn:    1.8680    constr:    0.0000
     atom:    4    charge:   12.7777    magn:    2.6493    constr:    0.0000
     atom:    5    charge:    4.1113    magn:    0.0440    constr:    0.0000

     total cpu time spent up to now is      158.6 secs

     total energy              =   -1345.13835399 Ry
     Harris-Foulkes estimate   =   -1345.13836026 Ry
     estimated scf accuracy    <       0.00000712 Ry

     total magnetization       =     8.97 Bohr mag/cell
     absolute magnetization    =     9.30 Bohr mag/cell

     iteration # 75     ecut=    71.00 Ry     beta=0.70
     Davidson diagonalization with overlap
     ethr =  4.63E-09,  avg # of iterations =  2.5

     negative rho (up, down):  0.000E+00 7.061E-04
 
     Magnetic moment per site:
     atom:    1    charge:   12.8309    magn:    1.8821    constr:    0.0000
     atom:    2    charge:   12.8309    magn:    1.8821    constr:    0.0000
     atom:    3    charge:   12.8309    magn:    1.8821    constr:    0.0000
     atom:    4    charge:   12.7780    magn:    2.6481    constr:    0.0000
     atom:    5    charge:    4.1119    magn:    0.0454    constr:    0.0000

     total cpu time spent up to now is      160.6 secs

     total energy              =   -1345.13832673 Ry
     Harris-Foulkes estimate   =   -1345.13835575 Ry
     estimated scf accuracy    <       0.00001053 Ry

     total magnetization       =     8.98 Bohr mag/cell
     absolute magnetization    =     9.32 Bohr mag/cell

     iteration # 76     ecut=    71.00 Ry     beta=0.70
     Davidson diagonalization with overlap
     ethr =  4.63E-09,  avg # of iterations =  3.1

     negative rho (up, down):  0.000E+00 7.091E-04
 
     Magnetic moment per site:
     atom:    1    charge:   12.8309    magn:    1.8853    constr:    0.0000
     atom:    2    charge:   12.8309    magn:    1.8853    constr:    0.0000
     atom:    3    charge:   12.8309    magn:    1.8853    constr:    0.0000
     atom:    4    charge:   12.7780    magn:    2.6478    constr:    0.0000
     atom:    5    charge:    4.1120    magn:    0.0457    constr:    0.0000

     total cpu time spent up to now is      162.7 secs

     total energy              =   -1345.13833151 Ry
     Harris-Foulkes estimate   =   -1345.13833769 Ry
     estimated scf accuracy    <       0.00003385 Ry

     total magnetization       =     9.01 Bohr mag/cell
[...]

     total cpu time spent up to now is      176.1 secs

     total energy              =   -1345.13810768 Ry
     Harris-Foulkes estimate   =   -1345.13840423 Ry
     estimated scf accuracy    <       0.00003350 Ry

     total magnetization       =     8.77 Bohr mag/cell
     absolute magnetization    =     9.11 Bohr mag/cell

     iteration # 83     ecut=    71.00 Ry     beta=0.70
     Davidson diagonalization with overlap
     ethr =  4.63E-09,  avg # of iterations =  4.1

     negative rho (up, down):  0.000E+00 6.908E-04
 
     Magnetic moment per site:
     atom:    1    charge:   12.8311    magn:    1.8655    constr:    0.0000
     atom:    2    charge:   12.8311    magn:    1.8655    constr:    0.0000
     atom:    3    charge:   12.8311    magn:    1.8655    constr:    0.0000
     atom:    4    charge:   12.7777    magn:    2.6496    constr:    0.0000
     atom:    5    charge:    4.1112    magn:    0.0438    constr:    0.0000

     total cpu time spent up to now is      179.0 secs

     total energy              =   -1345.13835803 Ry
     Harris-Foulkes estimate   =   -1345.13835821 Ry
     estimated scf accuracy    <       0.00000843 Ry

     total magnetization       =     8.97 Bohr mag/cell
     absolute magnetization    =     9.31 Bohr mag/cell

     iteration # 84     ecut=    71.00 Ry     beta=0.70
     Davidson diagonalization with overlap
     ethr =  4.63E-09,  avg # of iterations =  1.0

     negative rho (up, down):  0.000E+00 7.099E-04
 
     Magnetic moment per site:
     atom:    1    charge:   12.8308    magn:    1.8861    constr:    0.0000
     atom:    2    charge:   12.8308    magn:    1.8861    constr:    0.0000
     atom:    3    charge:   12.8308    magn:    1.8861    constr:    0.0000
     atom:    4    charge:   12.7780    magn:    2.6477    constr:    0.0000
     atom:    5    charge:    4.1121    magn:    0.0458    constr:    0.0000

     total cpu time spent up to now is      180.8 secs

     total energy              =   -1345.13830692 Ry
     Harris-Foulkes estimate   =   -1345.13835803 Ry
     estimated scf accuracy    <       0.00000862 Ry

     total magnetization       =     8.97 Bohr mag/cell
     absolute magnetization    =     9.31 Bohr mag/cell

     iteration # 85     ecut=    71.00 Ry     beta=0.70
     Davidson diagonalization with overlap
     ethr =  4.63E-09,  avg # of iterations =  3.2

     negative rho (up, down):  0.000E+00 7.373E-04
 
     Magnetic moment per site:
     atom:    1    charge:   12.8304    magn:    1.9160    constr:    0.0000
     atom:    2    charge:   12.8304    magn:    1.9160    constr:    0.0000
     atom:    3    charge:   12.8304    magn:    1.9160    constr:    0.0000
     atom:    4    charge:   12.7785    magn:    2.6450    constr:    0.0000
     atom:    5    charge:    4.1133    magn:    0.0487    constr:    0.0000

     total cpu time spent up to now is      183.3 secs

     total energy              =   -1345.13820190 Ry
     Harris-Foulkes estimate   =   -1345.13833044 Ry
     estimated scf accuracy    <       0.00004729 Ry

     total magnetization       =     9.01 Bohr mag/cell
     absolute magnetization    =     9.35 Bohr mag/cell

     iteration # 86     ecut=    71.00 Ry     beta=0.70
     Davidson diagonalization with overlap
     ethr =  4.63E-09,  avg # of iterations =  3.6

     negative rho (up, down):  0.000E+00 6.649E-04
 
     Magnetic moment per site:
     atom:    1    charge:   12.8315    magn:    1.8373    constr:    0.0000
     atom:    2    charge:   12.8315    magn:    1.8373    constr:    0.0000
     atom:    3    charge:   12.8315    magn:    1.8373    constr:    0.0000
     atom:    4    charge:   12.7772    magn:    2.6521    constr:    0.0000
     atom:    5    charge:    4.1101    magn:    0.0410    constr:    0.0000

     total cpu time spent up to now is      186.0 secs

     total energy              =   -1345.13814817 Ry
     Harris-Foulkes estimate   =   -1345.13822843 Ry
     estimated scf accuracy    <       0.00032694 Ry

     total magnetization       =     9.02 Bohr mag/cell
     absolute magnetization    =     9.37 Bohr mag/cell

     iteration # 87     ecut=    71.00 Ry     beta=0.70
     Davidson diagonalization with overlap
     ethr =  4.63E-09,  avg # of iterations =  4.1

     negative rho (up, down):  0.000E+00 6.695E-04
 
     Magnetic moment per site:
     atom:    1    charge:   12.8314    magn:    1.8423    constr:    0.0000
     atom:    2    charge:   12.8314    magn:    1.8423    constr:    0.0000
     atom:    3    charge:   12.8314    magn:    1.8423    constr:    0.0000
     atom:    4    charge:   12.7773    magn:    2.6517    constr:    0.0000
     atom:    5    charge:    4.1103    magn:    0.0415    constr:    0.0000

     total cpu time spent up to now is      188.8 secs

     total energy              =   -1345.13837125 Ry
     Harris-Foulkes estimate   =   -1345.13837697 Ry
     estimated scf accuracy    <       0.00000662 Ry

     total magnetization       =     8.88 Bohr mag/cell
     absolute magnetization    =     9.22 Bohr mag/cell

     iteration # 88     ecut=    71.00 Ry     beta=0.70
     Davidson diagonalization with overlap
     ethr =  4.63E-09,  avg # of iterations =  2.1

     negative rho (up, down):  0.000E+00 6.783E-04
 
     Magnetic moment per site:
     atom:    1    charge:   12.8313    magn:    1.8519    constr:    0.0000
     atom:    2    charge:   12.8313    magn:    1.8519    constr:    0.0000
     atom:    3    charge:   12.8313    magn:    1.8519    constr:    0.0000
     atom:    4    charge:   12.7775    magn:    2.6508    constr:    0.0000
     atom:    5    charge:    4.1107    magn:    0.0425    constr:    0.0000

     total cpu time spent up to now is      190.6 secs

     total energy              =   -1345.13836012 Ry
     Harris-Foulkes estimate   =   -1345.13837348 Ry
     estimated scf accuracy    <       0.00000518 Ry

     total magnetization       =     8.90 Bohr mag/cell
     absolute magnetization    =     9.24 Bohr mag/cell

     iteration # 89     ecut=    71.00 Ry     beta=0.70
     Davidson diagonalization with overlap
     ethr =  4.63E-09,  avg # of iterations =  3.0

     negative rho (up, down):  0.000E+00 6.827E-04
 
     Magnetic moment per site:
     atom:    1    charge:   12.8312    magn:    1.8566    constr:    0.0000
     atom:    2    charge:   12.8312    magn:    1.8566    constr:    0.0000
     atom:    3    charge:   12.8312    magn:    1.8566    constr:    0.0000
     atom:    4    charge:   12.7776    magn:    2.6504    constr:    0.0000
     atom:    5    charge:    4.1109    magn:    0.0429    constr:    0.0000

     total cpu time spent up to now is      192.7 secs

     total energy              =   -1345.13836289 Ry
     Harris-Foulkes estimate   =   -1345.13836761 Ry
     estimated scf accuracy    <       0.00000461 Ry

     total magnetization       =     8.93 Bohr mag/cell
     absolute magnetization    =     9.27 Bohr mag/cell

     iteration # 90     ecut=    71.00 Ry     beta=0.70
     Davidson diagonalization with overlap
     ethr =  4.63E-09,  avg # of iterations =  2.1

     negative rho (up, down):  0.000E+00 6.823E-04
 
     Magnetic moment per site:
     atom:    1    charge:   12.8312    magn:    1.8563    constr:    0.0000
     atom:    2    charge:   12.8312    magn:    1.8563    constr:    0.0000
     atom:    3    charge:   12.8312    magn:    1.8563    constr:    0.0000
     atom:    4    charge:   12.7776    magn:    2.6504    constr:    0.0000
     atom:    5    charge:    4.1109    magn:    0.0429    constr:    0.0000

     total cpu time spent up to now is      194.5 secs

     total energy              =   -1345.13836480 Ry
     Harris-Foulkes estimate   =   -1345.13836457 Ry
     estimated scf accuracy    <       0.00000515 Ry

     total magnetization       =     8.95 Bohr mag/cell
     absolute magnetization    =     9.29 Bohr mag/cell

     iteration # 91     ecut=    71.00 Ry     beta=0.70
     Davidson diagonalization with overlap
     ethr =  4.63E-09,  avg # of iterations =  1.0

     negative rho (up, down):  0.000E+00 6.506E-04
 
     Magnetic moment per site:
     atom:    1    charge:   12.8317    magn:    1.8218    constr:    0.0000
     atom:    2    charge:   12.8317    magn:    1.8218    constr:    0.0000
     atom:    3    charge:   12.8317    magn:    1.8218    constr:    0.0000
     atom:    4    charge:   12.7770    magn:    2.6535    constr:    0.0000
     atom:    5    charge:    4.1094    magn:    0.0395    constr:    0.0000

     total cpu time spent up to now is      196.1 secs

     total energy              =   -1345.13829487 Ry
     Harris-Foulkes estimate   =   -1345.13836483 Ry
     estimated scf accuracy    <       0.00000508 Ry

     total magnetization       =     8.95 Bohr mag/cell
     absolute magnetization    =     9.29 Bohr mag/cell

     iteration # 92     ecut=    71.00 Ry     beta=0.70
     Davidson diagonalization with overlap
     ethr =  4.63E-09,  avg # of iterations =  3.9

     negative rho (up, down):  0.000E+00 6.629E-04
 
     Magnetic moment per site:
     atom:    1    charge:   12.8315    magn:    1.8352    constr:    0.0000
     atom:    2    charge:   12.8315    magn:    1.8352    constr:    0.0000
     atom:    3    charge:   12.8315    magn:    1.8352    constr:    0.0000
     atom:    4    charge:   12.7772    magn:    2.6523    constr:    0.0000
     atom:    5    charge:    4.1100    magn:    0.0408    constr:    0.0000

     total cpu time spent up to now is      198.6 secs

     total energy              =   -1345.13836113 Ry
     Harris-Foulkes estimate   =   -1345.13839193 Ry
     estimated scf accuracy    <       0.00001925 Ry

     total magnetization       =     8.81 Bohr mag/cell
     absolute magnetization    =     9.15 Bohr mag/cell

     iteration # 93     ecut=    71.00 Ry     beta=0.70
     Davidson diagonalization with overlap
     ethr =  4.63E-09,  avg # of iterations =  3.0

     negative rho (up, down):  0.000E+00 6.836E-04
 
     Magnetic moment per site:
     atom:    1    charge:   12.8312    magn:    1.8577    constr:    0.0000
     atom:    2    charge:   12.8312    magn:    1.8577    constr:    0.0000
     atom:    3    charge:   12.8312    magn:    1.8577    constr:    0.0000
     atom:    4    charge:   12.7776    magn:    2.6503    constr:    0.0000
     atom:    5    charge:    4.1109    magn:    0.0431    constr:    0.0000

     total cpu time spent up to now is      200.8 secs

     total energy              =   -1345.13832137 Ry
     Harris-Foulkes estimate   =   -1345.13837856 Ry
     estimated scf accuracy    <       0.00000763 Ry

     total magnetization       =     8.87 Bohr mag/cell
     absolute magnetization    =     9.21 Bohr mag/cell

     iteration # 94     ecut=    71.00 Ry     beta=0.70
     Davidson diagonalization with overlap
     ethr =  4.63E-09,  avg # of iterations =  3.3

     negative rho (up, down):  0.000E+00 6.924E-04
 
     Magnetic moment per site:
     atom:    1    charge:   12.8311    magn:    1.8672    constr:    0.0000
     atom:    2    charge:   12.8311    magn:    1.8672    constr:    0.0000
     atom:    3    charge:   12.8311    magn:    1.8672    constr:    0.0000
     atom:    4    charge:   12.7777    magn:    2.6494    constr:    0.0000
     atom:    5    charge:    4.1113    magn:    0.0440    constr:    0.0000

     total cpu time spent up to now is      203.0 secs

     total energy              =   -1345.13835059 Ry
     Harris-Foulkes estimate   =   -1345.13836385 Ry
     estimated scf accuracy    <       0.00000536 Ry

     total magnetization       =     8.95 Bohr mag/cell
     absolute magnetization    =     9.29 Bohr mag/cell

     iteration # 95     ecut=    71.00 Ry     beta=0.70
     Davidson diagonalization with overlap
     ethr =  4.63E-09,  avg # of iterations =  2.9

     negative rho (up, down):  0.000E+00 6.876E-04
 
     Magnetic moment per site:
     atom:    1    charge:   12.8312    magn:    1.8620    constr:    0.0000
     atom:    2    charge:   12.8312    magn:    1.8620    constr:    0.0000
     atom:    3    charge:   12.8312    magn:    1.8620    constr:    0.0000
     atom:    4    charge:   12.7776    magn:    2.6499    constr:    0.0000
     atom:    5    charge:    4.1111    magn:    0.0435    constr:    0.0000

     total cpu time spent up to now is      205.2 secs

     total energy              =   -1345.13835918 Ry
     Harris-Foulkes estimate   =   -1345.13835654 Ry
     estimated scf accuracy    <       0.00000988 Ry

     total magnetization       =     8.98 Bohr mag/cell
     absolute magnetization    =     9.32 Bohr mag/cell

     iteration # 96     ecut=    71.00 Ry     beta=0.70
     Davidson diagonalization with overlap
     ethr =  4.63E-09,  avg # of iterations =  2.0

     negative rho (up, down):  0.000E+00 6.923E-04
 
     Magnetic moment per site:
     atom:    1    charge:   12.8311    magn:    1.8670    constr:    0.0000
     atom:    2    charge:   12.8311    magn:    1.8670    constr:    0.0000
     atom:    3    charge:   12.8311    magn:    1.8670    constr:    0.0000
     atom:    4    charge:   12.7777    magn:    2.6494    constr:    0.0000
     atom:    5    charge:    4.1113    magn:    0.0439    constr:    0.0000

     total cpu time spent up to now is      207.2 secs

     total energy              =   -1345.13835506 Ry
     Harris-Foulkes estimate   =   -1345.13836081 Ry
     estimated scf accuracy    <       0.00000680 Ry

     total magnetization       =     8.97 Bohr mag/cell
     absolute magnetization    =     9.30 Bohr mag/cell

     iteration # 97     ecut=    71.00 Ry     beta=0.70
     Davidson diagonalization with overlap
     ethr =  4.63E-09,  avg # of iterations =  2.0

     negative rho (up, down):  0.000E+00 6.929E-04
 
     Magnetic moment per site:
     atom:    1    charge:   12.8311    magn:    1.8677    constr:    0.0000
     atom:    2    charge:   12.8311    magn:    1.8677    constr:    0.0000
     atom:    3    charge:   12.8311    magn:    1.8677    constr:    0.0000
     atom:    4    charge:   12.7777    magn:    2.6494    constr:    0.0000
     atom:    5    charge:    4.1113    magn:    0.0440    constr:    0.0000

     total cpu time spent up to now is      209.1 secs

     total energy              =   -1345.13835605 Ry
     Harris-Foulkes estimate   =   -1345.13835665 Ry
     estimated scf accuracy    <       0.00000990 Ry

     total magnetization       =     8.98 Bohr mag/cell
     absolute magnetization    =     9.32 Bohr mag/cell

     iteration # 98     ecut=    71.00 Ry     beta=0.70
     Davidson diagonalization with overlap
     ethr =  4.63E-09,  avg # of iterations =  1.0

     negative rho (up, down):  0.000E+00 6.959E-04
 
     Magnetic moment per site:
     atom:    1    charge:   12.8310    magn:    1.8710    constr:    0.0000
     atom:    2    charge:   12.8310    magn:    1.8710    constr:    0.0000
     atom:    3    charge:   12.8310    magn:    1.8710    constr:    0.0000
     atom:    4    charge:   12.7778    magn:    2.6491    constr:    0.0000
     atom:    5    charge:    4.1115    magn:    0.0443    constr:    0.0000

     total cpu time spent up to now is      210.9 secs

     total energy              =   -1345.13835212 Ry
     Harris-Foulkes estimate   =   -1345.13835608 Ry
     estimated scf accuracy    <       0.00001037 Ry

     total magnetization       =     8.98 Bohr mag/cell
     absolute magnetization    =     9.32 Bohr mag/cell

     iteration # 99     ecut=    71.00 Ry     beta=0.70
     Davidson diagonalization with overlap
     ethr =  4.63E-09,  avg # of iterations =  1.9

     negative rho (up, down):  0.000E+00 6.959E-04
 
     Magnetic moment per site:
     atom:    1    charge:   12.8310    magn:    1.8709    constr:    0.0000
     atom:    2    charge:   12.8310    magn:    1.8709    constr:    0.0000
     atom:    3    charge:   12.8310    magn:    1.8709    constr:    0.0000
     atom:    4    charge:   12.7778    magn:    2.6491    constr:    0.0000
     atom:    5    charge:    4.1115    magn:    0.0443    constr:    0.0000

     total cpu time spent up to now is      212.8 secs

     total energy              =   -1345.13835286 Ry
     Harris-Foulkes estimate   =   -1345.13835278 Ry
     estimated scf accuracy    <       0.00001347 Ry

     total magnetization       =     8.99 Bohr mag/cell
     absolute magnetization    =     9.32 Bohr mag/cell

     iteration #100     ecut=    71.00 Ry     beta=0.70
     Davidson diagonalization with overlap
     ethr =  4.63E-09,  avg # of iterations =  1.0

     negative rho (up, down):  0.000E+00 6.941E-04
 
     Magnetic moment per site:
     atom:    1    charge:   12.8311    magn:    1.8690    constr:    0.0000
     atom:    2    charge:   12.8311    magn:    1.8690    constr:    0.0000
     atom:    3    charge:   12.8311    magn:    1.8690    constr:    0.0000
     atom:    4    charge:   12.7778    magn:    2.6493    constr:    0.0000
     atom:    5    charge:    4.1114    magn:    0.0442    constr:    0.0000

     total cpu time spent up to now is      214.6 secs

     total energy              =   -1345.13835463 Ry
     Harris-Foulkes estimate   =   -1345.13835287 Ry
     estimated scf accuracy    <       0.00001342 Ry

     total magnetization       =     8.99 Bohr mag/cell
     absolute magnetization    =     9.32 Bohr mag/cell

     End of self-consistent calculation

     convergence NOT achieved after 100 iterations: stopping

     Writing output data file config.save
 
     init_run     :      1.16s CPU      1.56s WALL (       1 calls)
     electrons    :    207.01s CPU    212.66s WALL (       1 calls)

     Called by init_run:
     wfcinit      :      0.36s CPU      0.39s WALL (       1 calls)
     potinit      :      0.39s CPU      0.43s WALL (       1 calls)

     Called by electrons:
     c_bands      :    128.92s CPU    132.31s WALL (     100 calls)
     sum_band     :     30.19s CPU     30.72s WALL (     100 calls)
     v_of_rho     :      3.15s CPU      3.27s WALL (     101 calls)
     newd         :      4.75s CPU      4.80s WALL (     101 calls)
     mix_rho      :      0.92s CPU      0.94s WALL (     100 calls)

     Called by c_bands:
     init_us_2    :      1.62s CPU      1.65s WALL (    4020 calls)
     cegterg      :    121.78s CPU    124.98s WALL (    2000 calls)

     Called by sum_band:
     sum_band:bec :      0.06s CPU      0.06s WALL (    2000 calls)
     addusdens    :     12.69s CPU     12.74s WALL (     100 calls)

     Called by *egterg:
     h_psi        :     72.17s CPU     74.31s WALL (    7176 calls)
     s_psi        :      2.76s CPU      2.87s WALL (    7176 calls)
     g_psi        :      0.68s CPU      0.70s WALL (    5156 calls)
     cdiaghg      :     23.47s CPU     23.91s WALL (    7156 calls)

     Called by h_psi:
     add_vuspsi   :      2.80s CPU      2.89s WALL (    7176 calls)

     General routines
     calbec       :      5.51s CPU      5.70s WALL (    9176 calls)
     fft          :      1.72s CPU      1.74s WALL (    3125 calls)
     ffts         :      0.08s CPU      0.08s WALL (     402 calls)
     fftw         :     63.13s CPU     64.81s WALL (  515724 calls)
     interpolate  :      0.38s CPU      0.38s WALL (     402 calls)
     davcio       :      0.02s CPU      0.06s WALL (      38 calls)
 
     Parallel routines
     fft_scatter  :     24.67s CPU     25.64s WALL (  519251 calls)

     PAW routines
     PAW_pot      :     39.03s CPU     40.30s WALL (     101 calls)
     PAW_symme    :      0.14s CPU      0.15s WALL (     201 calls)
 
     PWSCF        :  3m28.62s CPU     3m34.83s WALL

 
   This run was terminated on:  21:26:18  26Oct2020            

=------------------------------------------------------------------------------=
   JOB DONE.
=------------------------------------------------------------------------------=
