
     Program PWSCF v.5.2.0 starts on 26Oct2020 at 21: 8:40 

     This program is part of the open-source Quantum ESPRESSO suite
     for quantum simulation of materials; please cite
         "P. Giannozzi et al., J. Phys.:Condens. Matter 21 395502 (2009);
          URL http://www.quantum-espresso.org", 
     in publications or presentations arising from this work. More details at
     http://www.quantum-espresso.org/quote

     Parallel version (MPI), running on     6 processors
     R & G space division:  proc/nbgrp/npool/nimage =       6
     Reading input from 5.in

     Current dimensions of program PWSCF are:
     Max number of different atomic species (ntypx) = 10
     Max number of k-points (npk) =  40000
     Max angular momentum in pseudopotentials (lmaxx) =  3

     IMPORTANT: XC functional enforced from input :
     Exchange-correlation      = PBE ( 1  4  3  4 0 0)
     Any further DFT definition will be discarded
     Please, verify this is what you really want

               file Fe_PSEUDO: wavefunction(s)  3P 3D renormalized
               file N_PSEUDO: wavefunction(s)  2S renormalized

     Subspace diagonalization in iterative solution of the eigenvalue problem:
     a serial algorithm will be used

 
     Parallelization info
     --------------------
     sticks:   dense  smooth     PW     G-vecs:    dense   smooth      PW
     Min         316     182     52                10419     4506     694
     Max         318     183     53                10422     4517     695
     Sum        1901    1093    317                62525    27081    4169
 
     Generating pointlists ...
     new r_m :   0.2063 (alat units)  1.4318 (a.u.) for type    1
     new r_m :   0.2063 (alat units)  1.4318 (a.u.) for type    2


     bravais-lattice index     =            0
     lattice parameter (alat)  =       6.9422  a.u.
     unit-cell volume          =     334.5777 (a.u.)^3
     number of atoms/cell      =            5
     number of atomic types    =            2
     number of electrons       =        69.00
     number of Kohn-Sham states=           42
     kinetic-energy cutoff     =      71.0000  Ry
     charge density cutoff     =     496.0000  Ry
     convergence threshold     =      1.0E-08
     mixing beta               =       0.7000
     number of iterations used =            8  plain     mixing
     Exchange-correlation      = PBE ( 1  4  3  4 0 0)

     celldm(1)=   6.942230  celldm(2)=   0.000000  celldm(3)=   0.000000
     celldm(4)=   0.000000  celldm(5)=   0.000000  celldm(6)=   0.000000

     crystal axes: (cart. coord. in units of alat)
               a(1) = (   1.000000   0.000000   0.000000 )  
               a(2) = (   0.000000   1.000000   0.000000 )  
               a(3) = (   0.000000   0.000000   1.000000 )  

     reciprocal axes: (cart. coord. in units 2 pi/alat)
               b(1) = (  1.000000  0.000000  0.000000 )  
               b(2) = (  0.000000  1.000000  0.000000 )  
               b(3) = (  0.000000  0.000000  1.000000 )  


     PseudoPot. # 1 for Fe read from file:
     pseudo/Fe_PSEUDO
     MD5 check sum: e30d5f36a6f0cb983ee41abee56170da
     Pseudo is Projector augmented-wave + core cor, Zval = 16.0
     Generated using "atomic" code by A. Dal Corso  v.6.3
     Shape of augmentation charge: PSQ
     Using radial grid of 1191 points,  6 beta functions with: 
                l(1) =   0
                l(2) =   0
                l(3) =   1
                l(4) =   1
                l(5) =   2
                l(6) =   2
     Q(r) pseudized with 0 coefficients 


     PseudoPot. # 2 for  N read from file:
     pseudo/N_PSEUDO
     MD5 check sum: 14c48229446f9f2d411169a3abcbc3fa
     Pseudo is Projector augmented-wave + core cor, Zval =  5.0
     Generated using "atomic" code by A. Dal Corso  v.6.3
     Shape of augmentation charge: PSQ
     Using radial grid of 1085 points,  4 beta functions with: 
                l(1) =   0
                l(2) =   0
                l(3) =   1
                l(4) =   1
     Q(r) pseudized with 0 coefficients 


     atomic species   valence    mass     pseudopotential
        Fe            16.00    55.84500     Fe( 1.00)
        N              5.00    14.00650      N( 1.00)

     Starting magnetic structure 
     atomic species   magnetization
        Fe           0.500
        N           -0.010

     48 Sym. Ops., with inversion, found



   Cartesian axes

     site n.     atom                  positions (alat units)
         1           Fe  tau(   1) = (   0.0000000   0.5000000   0.5000000  )
         2           Fe  tau(   2) = (   0.5000000   0.5000000   0.0000000  )
         3           Fe  tau(   3) = (   0.5000000   0.0000000   0.5000000  )
         4           Fe  tau(   4) = (   0.0000000   0.0000000   0.0000000  )
         5           N   tau(   5) = (   0.5000000   0.5000000   0.5000000  )

     number of k points=    20  Marzari-Vanderbilt smearing, width (Ry)=  0.0050
                       cart. coord. in units 2pi/alat
        k(    1) = (   0.0000000   0.0000000   0.0000000), wk =   0.0080000
        k(    2) = (   0.0000000   0.0000000   0.2000000), wk =   0.0480000
        k(    3) = (   0.0000000   0.0000000   0.4000000), wk =   0.0480000
        k(    4) = (   0.0000000   0.2000000   0.2000000), wk =   0.0960000
        k(    5) = (   0.0000000   0.2000000   0.4000000), wk =   0.1920000
        k(    6) = (   0.0000000   0.4000000   0.4000000), wk =   0.0960000
        k(    7) = (   0.2000000   0.2000000   0.2000000), wk =   0.0640000
        k(    8) = (   0.2000000   0.2000000   0.4000000), wk =   0.1920000
        k(    9) = (   0.2000000   0.4000000   0.4000000), wk =   0.1920000
        k(   10) = (   0.4000000   0.4000000   0.4000000), wk =   0.0640000
        k(   11) = (   0.0000000   0.0000000   0.0000000), wk =   0.0080000
        k(   12) = (   0.0000000   0.0000000   0.2000000), wk =   0.0480000
        k(   13) = (   0.0000000   0.0000000   0.4000000), wk =   0.0480000
        k(   14) = (   0.0000000   0.2000000   0.2000000), wk =   0.0960000
        k(   15) = (   0.0000000   0.2000000   0.4000000), wk =   0.1920000
        k(   16) = (   0.0000000   0.4000000   0.4000000), wk =   0.0960000
        k(   17) = (   0.2000000   0.2000000   0.2000000), wk =   0.0640000
        k(   18) = (   0.2000000   0.2000000   0.4000000), wk =   0.1920000
        k(   19) = (   0.2000000   0.4000000   0.4000000), wk =   0.1920000
        k(   20) = (   0.4000000   0.4000000   0.4000000), wk =   0.0640000

     Dense  grid:    62525 G-vectors     FFT dimensions: (  50,  50,  50)

     Smooth grid:    27081 G-vectors     FFT dimensions: (  40,  40,  40)

     Largest allocated arrays     est. size (Mb)     dimensions
        Kohn-Sham Wavefunctions         0.37 Mb     (     576,   42)
        NL pseudopotentials             0.70 Mb     (     576,   80)
        Each V/rho on FFT grid          0.69 Mb     (   22500,   2)
        Each G-vector array             0.08 Mb     (   10422)
        G-vector shells                 0.00 Mb     (     497)
     Largest temporary arrays     est. size (Mb)     dimensions
        Auxiliary wavefunctions         1.48 Mb     (     576,  168)
        Each subspace H/S matrix        0.43 Mb     (     168,  168)
        Each <psi_i|beta_j> matrix      0.05 Mb     (      80,   42)
        Arrays for rho mixing           2.75 Mb     (   22500,    8)

     Check: negative/imaginary core charge=   -0.000002    0.000000

     Initial potential from superposition of free atoms

     starting charge   68.99837, renormalised to   69.00000
     Starting wfc are   44 randomized atomic wfcs
     Checking if some PAW data can be deallocated... 

     total cpu time spent up to now is        2.0 secs

     per-process dynamical memory:    35.4 Mb

     Self-consistent Calculation

     iteration #  1     ecut=    71.00 Ry     beta=0.70
     Davidson diagonalization with overlap
     ethr =  1.00E-02,  avg # of iterations =  3.2

     negative rho (up, down):  0.000E+00 1.028E-03
 
     Magnetic moment per site:
     atom:    1    charge:   12.7282    magn:    4.0968    constr:    0.0000
     atom:    2    charge:   12.7282    magn:    4.0968    constr:    0.0000
     atom:    3    charge:   12.7282    magn:    4.0968    constr:    0.0000
     atom:    4    charge:   12.6302    magn:    4.1441    constr:    0.0000
     atom:    5    charge:    4.6341    magn:    0.1143    constr:    0.0000

     total cpu time spent up to now is        4.0 secs

     total energy              =   -1344.13415340 Ry
     Harris-Foulkes estimate   =   -1343.41681020 Ry
     estimated scf accuracy    <       2.86821422 Ry

     total magnetization       =    13.78 Bohr mag/cell
     absolute magnetization    =    13.99 Bohr mag/cell

     iteration #  2     ecut=    71.00 Ry     beta=0.70
     Davidson diagonalization with overlap
     ethr =  4.16E-03,  avg # of iterations =  3.4

     negative rho (up, down):  0.000E+00 8.782E-04
 
     Magnetic moment per site:
     atom:    1    charge:   12.7307    magn:    3.7896    constr:    0.0000
     atom:    2    charge:   12.7307    magn:    3.7896    constr:    0.0000
     atom:    3    charge:   12.7307    magn:    3.7896    constr:    0.0000
     atom:    4    charge:   13.0674    magn:    3.5417    constr:    0.0000
     atom:    5    charge:    4.2001    magn:    0.0503    constr:    0.0000

     total cpu time spent up to now is        6.1 secs

     total energy              =   -1343.37541234 Ry
     Harris-Foulkes estimate   =   -1345.65423555 Ry
     estimated scf accuracy    <       7.61998326 Ry

     total magnetization       =     9.33 Bohr mag/cell
     absolute magnetization    =    10.48 Bohr mag/cell

     iteration #  3     ecut=    71.00 Ry     beta=0.70
     Davidson diagonalization with overlap
     ethr =  4.16E-03,  avg # of iterations =  3.6

     negative rho (up, down):  0.000E+00 6.761E-04
 
     Magnetic moment per site:
     atom:    1    charge:   12.8857    magn:    3.4354    constr:    0.0000
     atom:    2    charge:   12.8857    magn:    3.4354    constr:    0.0000
     atom:    3    charge:   12.8857    magn:    3.4354    constr:    0.0000
     atom:    4    charge:   12.8088    magn:    3.0259    constr:    0.0000
     atom:    5    charge:    4.0221    magn:    0.0198    constr:    0.0000

     total cpu time spent up to now is        8.3 secs

     total energy              =   -1343.60715342 Ry
     Harris-Foulkes estimate   =   -1346.16288826 Ry
     estimated scf accuracy    <      25.23752679 Ry

     total magnetization       =     3.82 Bohr mag/cell
     absolute magnetization    =     4.54 Bohr mag/cell

     iteration #  4     ecut=    71.00 Ry     beta=0.70
     Davidson diagonalization with overlap
     ethr =  4.16E-03,  avg # of iterations =  3.3

     negative rho (up, down):  0.000E+00 1.173E-03
 
     Magnetic moment per site:
     atom:    1    charge:   12.7733    magn:    2.2413    constr:    0.0000
     atom:    2    charge:   12.7733    magn:    2.2413    constr:    0.0000
     atom:    3    charge:   12.7733    magn:    2.2413    constr:    0.0000
     atom:    4    charge:   12.7275    magn:    1.8630    constr:    0.0000
     atom:    5    charge:    4.0518    magn:   -0.0539    constr:    0.0000

     total cpu time spent up to now is       10.4 secs

     total energy              =   -1344.99572341 Ry
     Harris-Foulkes estimate   =   -1345.08467348 Ry
     estimated scf accuracy    <       0.57974209 Ry

     total magnetization       =    10.71 Bohr mag/cell
     absolute magnetization    =    11.13 Bohr mag/cell

     iteration #  5     ecut=    71.00 Ry     beta=0.70
     Davidson diagonalization with overlap
     ethr =  8.40E-04,  avg # of iterations =  3.3

     negative rho (up, down):  0.000E+00 9.886E-04
 
     Magnetic moment per site:
     atom:    1    charge:   12.8323    magn:    2.1475    constr:    0.0000
     atom:    2    charge:   12.8323    magn:    2.1475    constr:    0.0000
     atom:    3    charge:   12.8323    magn:    2.1475    constr:    0.0000
     atom:    4    charge:   12.8025    magn:    2.0343    constr:    0.0000
     atom:    5    charge:    4.1097    magn:   -0.0280    constr:    0.0000

     total cpu time spent up to now is       12.7 secs

     total energy              =   -1345.08523698 Ry
     Harris-Foulkes estimate   =   -1345.17460979 Ry
     estimated scf accuracy    <       0.25490404 Ry

     total magnetization       =     9.56 Bohr mag/cell
     absolute magnetization    =     9.93 Bohr mag/cell

     iteration #  6     ecut=    71.00 Ry     beta=0.70
     Davidson diagonalization with overlap
     ethr =  3.69E-04,  avg # of iterations =  3.0

     negative rho (up, down):  0.000E+00 8.739E-04
 
     Magnetic moment per site:
     atom:    1    charge:   12.8268    magn:    2.0872    constr:    0.0000
     atom:    2    charge:   12.8268    magn:    2.0872    constr:    0.0000
     atom:    3    charge:   12.8268    magn:    2.0872    constr:    0.0000
     atom:    4    charge:   12.7930    magn:    2.3466    constr:    0.0000
     atom:    5    charge:    4.1120    magn:    0.0062    constr:    0.0000

     total cpu time spent up to now is       14.8 secs

     total energy              =   -1345.13300556 Ry
     Harris-Foulkes estimate   =   -1345.12854259 Ry
     estimated scf accuracy    <       0.02774877 Ry

     total magnetization       =     9.23 Bohr mag/cell
     absolute magnetization    =     9.60 Bohr mag/cell

     iteration #  7     ecut=    71.00 Ry     beta=0.70
     Davidson diagonalization with overlap
     ethr =  4.02E-05,  avg # of iterations =  1.6

     negative rho (up, down):  0.000E+00 6.966E-04
 
     Magnetic moment per site:
     atom:    1    charge:   12.8294    magn:    1.8485    constr:    0.0000
     atom:    2    charge:   12.8294    magn:    1.8485    constr:    0.0000
     atom:    3    charge:   12.8294    magn:    1.8485    constr:    0.0000
     atom:    4    charge:   12.7689    magn:    2.8456    constr:    0.0000
     atom:    5    charge:    4.1057    magn:    0.0367    constr:    0.0000

     total cpu time spent up to now is       16.5 secs

     total energy              =   -1345.13178668 Ry
     Harris-Foulkes estimate   =   -1345.13477604 Ry
     estimated scf accuracy    <       0.02173459 Ry

     total magnetization       =     9.14 Bohr mag/cell
     absolute magnetization    =     9.51 Bohr mag/cell

     iteration #  8     ecut=    71.00 Ry     beta=0.70
     Davidson diagonalization with overlap
     ethr =  3.15E-05,  avg # of iterations =  2.2

     negative rho (up, down):  0.000E+00 7.228E-04
 
     Magnetic moment per site:
     atom:    1    charge:   12.8311    magn:    1.8664    constr:    0.0000
     atom:    2    charge:   12.8311    magn:    1.8664    constr:    0.0000
     atom:    3    charge:   12.8311    magn:    1.8664    constr:    0.0000
     atom:    4    charge:   12.7747    magn:    2.6906    constr:    0.0000
     atom:    5    charge:    4.1110    magn:    0.0335    constr:    0.0000

     total cpu time spent up to now is       18.4 secs

     total energy              =   -1345.13798574 Ry
     Harris-Foulkes estimate   =   -1345.13760782 Ry
     estimated scf accuracy    <       0.00134697 Ry

     total magnetization       =     8.98 Bohr mag/cell
     absolute magnetization    =     9.33 Bohr mag/cell

     iteration #  9     ecut=    71.00 Ry     beta=0.70
     Davidson diagonalization with overlap
     ethr =  1.95E-06,  avg # of iterations =  2.3

     negative rho (up, down):  0.000E+00 7.014E-04
 
     Magnetic moment per site:
     atom:    1    charge:   12.8311    magn:    1.8580    constr:    0.0000
     atom:    2    charge:   12.8311    magn:    1.8580    constr:    0.0000
     atom:    3    charge:   12.8311    magn:    1.8580    constr:    0.0000
     atom:    4    charge:   12.7770    magn:    2.6564    constr:    0.0000
     atom:    5    charge:    4.1112    magn:    0.0378    constr:    0.0000

     total cpu time spent up to now is       20.3 secs

     total energy              =   -1345.13833775 Ry
     Harris-Foulkes estimate   =   -1345.13830826 Ry
     estimated scf accuracy    <       0.00020925 Ry

     total magnetization       =     8.97 Bohr mag/cell
     absolute magnetization    =     9.32 Bohr mag/cell

     iteration # 10     ecut=    71.00 Ry     beta=0.70
     Davidson diagonalization with overlap
     ethr =  3.03E-07,  avg # of iterations =  1.8

     negative rho (up, down):  0.000E+00 6.723E-04
 
     Magnetic moment per site:
     atom:    1    charge:   12.8313    magn:    1.8450    constr:    0.0000
     atom:    2    charge:   12.8313    magn:    1.8450    constr:    0.0000
     atom:    3    charge:   12.8313    magn:    1.8450    constr:    0.0000
     atom:    4    charge:   12.7776    magn:    2.6508    constr:    0.0000
     atom:    5    charge:    4.1104    magn:    0.0424    constr:    0.0000

     total cpu time spent up to now is       22.0 secs

     total energy              =   -1345.13835705 Ry
     Harris-Foulkes estimate   =   -1345.13835664 Ry
     estimated scf accuracy    <       0.00001432 Ry

     total magnetization       =     8.95 Bohr mag/cell
     absolute magnetization    =     9.29 Bohr mag/cell

     iteration # 11     ecut=    71.00 Ry     beta=0.70
     Davidson diagonalization with overlap
     ethr =  2.08E-08,  avg # of iterations =  3.1

     negative rho (up, down):  0.000E+00 6.669E-04
 
     Magnetic moment per site:
     atom:    1    charge:   12.8315    magn:    1.8374    constr:    0.0000
     atom:    2    charge:   12.8315    magn:    1.8374    constr:    0.0000
     atom:    3    charge:   12.8315    magn:    1.8374    constr:    0.0000
     atom:    4    charge:   12.7774    magn:    2.6501    constr:    0.0000
     atom:    5    charge:    4.1101    magn:    0.0414    constr:    0.0000

     total cpu time spent up to now is       24.1 secs

     total energy              =   -1345.13837145 Ry
     Harris-Foulkes estimate   =   -1345.13837120 Ry
     estimated scf accuracy    <       0.00000320 Ry

     total magnetization       =     8.91 Bohr mag/cell
     absolute magnetization    =     9.25 Bohr mag/cell

     iteration # 12     ecut=    71.00 Ry     beta=0.70
     Davidson diagonalization with overlap
     ethr =  4.63E-09,  avg # of iterations =  2.8

     negative rho (up, down):  0.000E+00 6.690E-04
 
     Magnetic moment per site:
     atom:    1    charge:   12.8315    magn:    1.8398    constr:    0.0000
     atom:    2    charge:   12.8315    magn:    1.8398    constr:    0.0000
     atom:    3    charge:   12.8315    magn:    1.8398    constr:    0.0000
     atom:    4    charge:   12.7775    magn:    2.6497    constr:    0.0000
     atom:    5    charge:    4.1102    magn:    0.0416    constr:    0.0000

     total cpu time spent up to now is       26.1 secs

     total energy              =   -1345.13837427 Ry
     Harris-Foulkes estimate   =   -1345.13837639 Ry
     estimated scf accuracy    <       0.00000455 Ry

     total magnetization       =     8.88 Bohr mag/cell
     absolute magnetization    =     9.22 Bohr mag/cell

     iteration # 13     ecut=    71.00 Ry     beta=0.70
     Davidson diagonalization with overlap
     ethr =  4.63E-09,  avg # of iterations =  1.0

     negative rho (up, down):  0.000E+00 6.996E-04
 
     Magnetic moment per site:
     atom:    1    charge:   12.8310    magn:    1.8745    constr:    0.0000
     atom:    2    charge:   12.8310    magn:    1.8745    constr:    0.0000
     atom:    3    charge:   12.8310    magn:    1.8745    constr:    0.0000
     atom:    4    charge:   12.7781    magn:    2.6502    constr:    0.0000
     atom:    5    charge:    4.1118    magn:    0.0450    constr:    0.0000

     total cpu time spent up to now is       27.8 secs

     total energy              =   -1345.13825899 Ry
     Harris-Foulkes estimate   =   -1345.13837475 Ry
     estimated scf accuracy    <       0.00000401 Ry

     total magnetization       =     8.89 Bohr mag/cell
     absolute magnetization    =     9.23 Bohr mag/cell

     iteration # 14     ecut=    71.00 Ry     beta=0.70
     Davidson diagonalization with overlap
     ethr =  4.63E-09,  avg # of iterations =  3.8

     negative rho (up, down):  0.000E+00 7.118E-04
 
     Magnetic moment per site:
     atom:    1    charge:   12.8309    magn:    1.8880    constr:    0.0000
     atom:    2    charge:   12.8309    magn:    1.8880    constr:    0.0000
     atom:    3    charge:   12.8309    magn:    1.8880    constr:    0.0000
     atom:    4    charge:   12.7784    magn:    2.6488    constr:    0.0000
     atom:    5    charge:    4.1123    magn:    0.0464    constr:    0.0000

     total cpu time spent up to now is       30.5 secs

     total energy              =   -1345.13831765 Ry
     Harris-Foulkes estimate   =   -1345.13834850 Ry
     estimated scf accuracy    <       0.00001638 Ry

     total magnetization       =     8.99 Bohr mag/cell
     absolute magnetization    =     9.33 Bohr mag/cell

     iteration # 15     ecut=    71.00 Ry     beta=0.70
     Davidson diagonalization with overlap
     ethr =  4.63E-09,  avg # of iterations =  3.4

     negative rho (up, down):  0.000E+00 6.834E-04
 
     Magnetic moment per site:
     atom:    1    charge:   12.8313    magn:    1.8567    constr:    0.0000
     atom:    2    charge:   12.8313    magn:    1.8567    constr:    0.0000
     atom:    3    charge:   12.8313    magn:    1.8567    constr:    0.0000
     atom:    4    charge:   12.7776    magn:    2.6507    constr:    0.0000
     atom:    5    charge:    4.1109    magn:    0.0430    constr:    0.0000

     total cpu time spent up to now is       32.7 secs

     total energy              =   -1345.13831706 Ry
     Harris-Foulkes estimate   =   -1345.13832623 Ry
     estimated scf accuracy    <       0.00004950 Ry

     total magnetization       =     9.01 Bohr mag/cell
     absolute magnetization    =     9.35 Bohr mag/cell

     iteration # 16     ecut=    71.00 Ry     beta=0.70
     Davidson diagonalization with overlap
     ethr =  4.63E-09,  avg # of iterations =  3.9

     negative rho (up, down):  0.000E+00 6.822E-04
 
     Magnetic moment per site:
     atom:    1    charge:   12.8313    magn:    1.8561    constr:    0.0000
     atom:    2    charge:   12.8313    magn:    1.8561    constr:    0.0000
     atom:    3    charge:   12.8313    magn:    1.8561    constr:    0.0000
     atom:    4    charge:   12.7776    magn:    2.6505    constr:    0.0000
     atom:    5    charge:    4.1109    magn:    0.0429    constr:    0.0000

     total cpu time spent up to now is       35.5 secs

     total energy              =   -1345.13836494 Ry
     Harris-Foulkes estimate   =   -1345.13836458 Ry
     estimated scf accuracy    <       0.00000595 Ry

     total magnetization       =     8.95 Bohr mag/cell
     absolute magnetization    =     9.29 Bohr mag/cell

     iteration # 17     ecut=    71.00 Ry     beta=0.70
     Davidson diagonalization with overlap
     ethr =  4.63E-09,  avg # of iterations =  1.0

     negative rho (up, down):  0.000E+00 6.763E-04
 
     Magnetic moment per site:
     atom:    1    charge:   12.8313    magn:    1.8497    constr:    0.0000
     atom:    2    charge:   12.8313    magn:    1.8497    constr:    0.0000
     atom:    3    charge:   12.8313    magn:    1.8497    constr:    0.0000
     atom:    4    charge:   12.7775    magn:    2.6509    constr:    0.0000
     atom:    5    charge:    4.1106    magn:    0.0422    constr:    0.0000

     total cpu time spent up to now is       37.2 secs

     total energy              =   -1345.13836592 Ry
     Harris-Foulkes estimate   =   -1345.13836498 Ry
     estimated scf accuracy    <       0.00000536 Ry

     total magnetization       =     8.95 Bohr mag/cell
     absolute magnetization    =     9.29 Bohr mag/cell

     iteration # 18     ecut=    71.00 Ry     beta=0.70
     Davidson diagonalization with overlap
     ethr =  4.63E-09,  avg # of iterations =  2.4

     negative rho (up, down):  0.000E+00 6.742E-04
 
     Magnetic moment per site:
     atom:    1    charge:   12.8314    magn:    1.8475    constr:    0.0000
     atom:    2    charge:   12.8314    magn:    1.8475    constr:    0.0000
     atom:    3    charge:   12.8314    magn:    1.8475    constr:    0.0000
     atom:    4    charge:   12.7774    magn:    2.6512    constr:    0.0000
     atom:    5    charge:    4.1105    magn:    0.0420    constr:    0.0000

     total cpu time spent up to now is       39.0 secs

     total energy              =   -1345.13836990 Ry
     Harris-Foulkes estimate   =   -1345.13836891 Ry
     estimated scf accuracy    <       0.00000451 Ry

     total magnetization       =     8.93 Bohr mag/cell
     absolute magnetization    =     9.27 Bohr mag/cell

     iteration # 19     ecut=    71.00 Ry     beta=0.70
     Davidson diagonalization with overlap
     ethr =  4.63E-09,  avg # of iterations =  1.0

     negative rho (up, down):  0.000E+00 6.697E-04
 
     Magnetic moment per site:
     atom:    1    charge:   12.8314    magn:    1.8427    constr:    0.0000
     atom:    2    charge:   12.8314    magn:    1.8427    constr:    0.0000
     atom:    3    charge:   12.8314    magn:    1.8427    constr:    0.0000
     atom:    4    charge:   12.7773    magn:    2.6515    constr:    0.0000
     atom:    5    charge:    4.1103    magn:    0.0415    constr:    0.0000

     total cpu time spent up to now is       40.7 secs

     total energy              =   -1345.13837139 Ry
     Harris-Foulkes estimate   =   -1345.13837031 Ry
     estimated scf accuracy    <       0.00000470 Ry

     total magnetization       =     8.92 Bohr mag/cell
     absolute magnetization    =     9.26 Bohr mag/cell

     iteration # 20     ecut=    71.00 Ry     beta=0.70
     Davidson diagonalization with overlap
     ethr =  4.63E-09,  avg # of iterations =  2.0

     negative rho (up, down):  0.000E+00 6.761E-04
 
     Magnetic moment per site:
     atom:    1    charge:   12.8313    magn:    1.8497    constr:    0.0000
     atom:    2    charge:   12.8313    magn:    1.8497    constr:    0.0000
     atom:    3    charge:   12.8313    magn:    1.8497    constr:    0.0000
     atom:    4    charge:   12.7774    magn:    2.6509    constr:    0.0000
     atom:    5    charge:    4.1106    magn:    0.0422    constr:    0.0000

     total cpu time spent up to now is       42.6 secs

     total energy              =   -1345.13836494 Ry
     Harris-Foulkes estimate   =   -1345.13837333 Ry
     estimated scf accuracy    <       0.00000519 Ry

     total magnetization       =     8.90 Bohr mag/cell
     absolute magnetization    =     9.24 Bohr mag/cell

     iteration # 21     ecut=    71.00 Ry     beta=0.70
     Davidson diagonalization with overlap
     ethr =  4.63E-09,  avg # of iterations =  2.6

     negative rho (up, down):  0.000E+00 6.750E-04
 
     Magnetic moment per site:
     atom:    1    charge:   12.8313    magn:    1.8484    constr:    0.0000
     atom:    2    charge:   12.8313    magn:    1.8484    constr:    0.0000
     atom:    3    charge:   12.8313    magn:    1.8484    constr:    0.0000
     atom:    4    charge:   12.7774    magn:    2.6510    constr:    0.0000
     atom:    5    charge:    4.1105    magn:    0.0421    constr:    0.0000

     total cpu time spent up to now is       44.5 secs

     total energy              =   -1345.13836961 Ry
     Harris-Foulkes estimate   =   -1345.13836897 Ry
     estimated scf accuracy    <       0.00000461 Ry

     total magnetization       =     8.93 Bohr mag/cell
     absolute magnetization    =     9.26 Bohr mag/cell

     iteration # 22     ecut=    71.00 Ry     beta=0.70
     Davidson diagonalization with overlap
     ethr =  4.63E-09,  avg # of iterations =  1.0

     negative rho (up, down):  0.000E+00 6.774E-04
 
     Magnetic moment per site:
     atom:    1    charge:   12.8313    magn:    1.8510    constr:    0.0000
     atom:    2    charge:   12.8313    magn:    1.8510    constr:    0.0000
     atom:    3    charge:   12.8313    magn:    1.8510    constr:    0.0000
     atom:    4    charge:   12.7775    magn:    2.6509    constr:    0.0000
     atom:    5    charge:    4.1106    magn:    0.0423    constr:    0.0000

     total cpu time spent up to now is       46.2 secs

     total energy              =   -1345.13836761 Ry
     Harris-Foulkes estimate   =   -1345.13836974 Ry
     estimated scf accuracy    <       0.00000457 Ry

     total magnetization       =     8.92 Bohr mag/cell
     absolute magnetization    =     9.26 Bohr mag/cell

     iteration # 23     ecut=    71.00 Ry     beta=0.70
     Davidson diagonalization with overlap
     ethr =  4.63E-09,  avg # of iterations =  1.0

     negative rho (up, down):  0.000E+00 7.280E-04
 
     Magnetic moment per site:
     atom:    1    charge:   12.8306    magn:    1.9061    constr:    0.0000
     atom:    2    charge:   12.8306    magn:    1.9061    constr:    0.0000
     atom:    3    charge:   12.8306    magn:    1.9061    constr:    0.0000
     atom:    4    charge:   12.7784    magn:    2.6459    constr:    0.0000
     atom:    5    charge:    4.1129    magn:    0.0479    constr:    0.0000

     total cpu time spent up to now is       47.8 secs

     total energy              =   -1345.13809707 Ry
     Harris-Foulkes estimate   =   -1345.13836814 Ry
     estimated scf accuracy    <       0.00000480 Ry

     total magnetization       =     8.93 Bohr mag/cell
     absolute magnetization    =     9.27 Bohr mag/cell

     iteration # 24     ecut=    71.00 Ry     beta=0.70
     Davidson diagonalization with overlap
     ethr =  4.63E-09,  avg # of iterations =  4.1

     negative rho (up, down):  0.000E+00 6.698E-04
 
     Magnetic moment per site:
     atom:    1    charge:   12.8314    magn:    1.8428    constr:    0.0000
     atom:    2    charge:   12.8314    magn:    1.8428    constr:    0.0000
     atom:    3    charge:   12.8314    magn:    1.8428    constr:    0.0000
     atom:    4    charge:   12.7773    magn:    2.6515    constr:    0.0000
     atom:    5    charge:    4.1103    magn:    0.0415    constr:    0.0000

     total cpu time spent up to now is       50.5 secs

     total energy              =   -1345.13820781 Ry
     Harris-Foulkes estimate   =   -1345.13827295 Ry
     estimated scf accuracy    <       0.00018744 Ry

     total magnetization       =     9.02 Bohr mag/cell
     absolute magnetization    =     9.37 Bohr mag/cell

     iteration # 25     ecut=    71.00 Ry     beta=0.70
     Davidson diagonalization with overlap
     ethr =  4.63E-09,  avg # of iterations =  4.1

     negative rho (up, down):  0.000E+00 6.599E-04
 
     Magnetic moment per site:
     atom:    1    charge:   12.8316    magn:    1.8321    constr:    0.0000
     atom:    2    charge:   12.8316    magn:    1.8321    constr:    0.0000
     atom:    3    charge:   12.8316    magn:    1.8321    constr:    0.0000
     atom:    4    charge:   12.7771    magn:    2.6524    constr:    0.0000
     atom:    5    charge:    4.1098    magn:    0.0405    constr:    0.0000

     total cpu time spent up to now is       53.3 secs

     total energy              =   -1345.13837124 Ry
     Harris-Foulkes estimate   =   -1345.13837324 Ry
     estimated scf accuracy    <       0.00000507 Ry

     total magnetization       =     8.90 Bohr mag/cell
     absolute magnetization    =     9.24 Bohr mag/cell

     iteration # 26     ecut=    71.00 Ry     beta=0.70
     Davidson diagonalization with overlap
     ethr =  4.63E-09,  avg # of iterations =  3.0

     negative rho (up, down):  0.000E+00 6.710E-04
 
     Magnetic moment per site:
     atom:    1    charge:   12.8314    magn:    1.8441    constr:    0.0000
     atom:    2    charge:   12.8314    magn:    1.8441    constr:    0.0000
     atom:    3    charge:   12.8314    magn:    1.8441    constr:    0.0000
     atom:    4    charge:   12.7773    magn:    2.6514    constr:    0.0000
     atom:    5    charge:    4.1103    magn:    0.0416    constr:    0.0000

     total cpu time spent up to now is       55.5 secs

     total energy              =   -1345.13835942 Ry
     Harris-Foulkes estimate   =   -1345.13838126 Ry
     estimated scf accuracy    <       0.00000952 Ry

     total magnetization       =     8.86 Bohr mag/cell
     absolute magnetization    =     9.20 Bohr mag/cell

     iteration # 27     ecut=    71.00 Ry     beta=0.70
     Davidson diagonalization with overlap
     ethr =  4.63E-09,  avg # of iterations =  3.0

     negative rho (up, down):  0.000E+00 6.748E-04
 
     Magnetic moment per site:
     atom:    1    charge:   12.8313    magn:    1.8483    constr:    0.0000
     atom:    2    charge:   12.8313    magn:    1.8483    constr:    0.0000
     atom:    3    charge:   12.8313    magn:    1.8483    constr:    0.0000
     atom:    4    charge:   12.7774    magn:    2.6510    constr:    0.0000
     atom:    5    charge:    4.1105    magn:    0.0421    constr:    0.0000

     total cpu time spent up to now is       57.8 secs

     total energy              =   -1345.13836837 Ry
     Harris-Foulkes estimate   =   -1345.13837241 Ry
     estimated scf accuracy    <       0.00000501 Ry

     total magnetization       =     8.91 Bohr mag/cell
     absolute magnetization    =     9.25 Bohr mag/cell

     iteration # 28     ecut=    71.00 Ry     beta=0.70
     Davidson diagonalization with overlap
     ethr =  4.63E-09,  avg # of iterations =  1.9

     negative rho (up, down):  0.000E+00 6.644E-04
 
     Magnetic moment per site:
     atom:    1    charge:   12.8315    magn:    1.8370    constr:    0.0000
     atom:    2    charge:   12.8315    magn:    1.8370    constr:    0.0000
     atom:    3    charge:   12.8315    magn:    1.8370    constr:    0.0000
     atom:    4    charge:   12.7772    magn:    2.6520    constr:    0.0000
     atom:    5    charge:    4.1101    magn:    0.0409    constr:    0.0000

     total cpu time spent up to now is       59.6 secs

     total energy              =   -1345.13836686 Ry
     Harris-Foulkes estimate   =   -1345.13836980 Ry
     estimated scf accuracy    <       0.00000460 Ry

     total magnetization       =     8.92 Bohr mag/cell
     absolute magnetization    =     9.26 Bohr mag/cell

     iteration # 29     ecut=    71.00 Ry     beta=0.70
     Davidson diagonalization with overlap
     ethr =  4.63E-09,  avg # of iterations =  3.0

     negative rho (up, down):  0.000E+00 6.672E-04
 
     Magnetic moment per site:
     atom:    1    charge:   12.8315    magn:    1.8401    constr:    0.0000
     atom:    2    charge:   12.8315    magn:    1.8401    constr:    0.0000
     atom:    3    charge:   12.8315    magn:    1.8401    constr:    0.0000
     atom:    4    charge:   12.7773    magn:    2.6517    constr:    0.0000
     atom:    5    charge:    4.1102    magn:    0.0412    constr:    0.0000

     total cpu time spent up to now is       61.7 secs

     total energy              =   -1345.13837420 Ry
     Harris-Foulkes estimate   =   -1345.13837725 Ry
     estimated scf accuracy    <       0.00000683 Ry

     total magnetization       =     8.88 Bohr mag/cell
     absolute magnetization    =     9.22 Bohr mag/cell

     iteration # 30     ecut=    71.00 Ry     beta=0.70
     Davidson diagonalization with overlap
     ethr =  4.63E-09,  avg # of iterations =  1.1

     negative rho (up, down):  0.000E+00 6.594E-04
 
     Magnetic moment per site:
     atom:    1    charge:   12.8316    magn:    1.8317    constr:    0.0000
     atom:    2    charge:   12.8316    magn:    1.8317    constr:    0.0000
     atom:    3    charge:   12.8316    magn:    1.8317    constr:    0.0000
     atom:    4    charge:   12.7771    magn:    2.6524    constr:    0.0000
     atom:    5    charge:    4.1098    magn:    0.0404    constr:    0.0000

     total cpu time spent up to now is       63.3 secs

     total energy              =   -1345.13837538 Ry
     Harris-Foulkes estimate   =   -1345.13837503 Ry
     estimated scf accuracy    <       0.00000580 Ry

     total magnetization       =     8.89 Bohr mag/cell
     absolute magnetization    =     9.23 Bohr mag/cell

     iteration # 31     ecut=    71.00 Ry     beta=0.70
     Davidson diagonalization with overlap
     ethr =  4.63E-09,  avg # of iterations =  2.9

     negative rho (up, down):  0.000E+00 6.584E-04
 
     Magnetic moment per site:
     atom:    1    charge:   12.8316    magn:    1.8306    constr:    0.0000
     atom:    2    charge:   12.8316    magn:    1.8306    constr:    0.0000
     atom:    3    charge:   12.8316    magn:    1.8306    constr:    0.0000
     atom:    4    charge:   12.7771    magn:    2.6525    constr:    0.0000
     atom:    5    charge:    4.1098    magn:    0.0403    constr:    0.0000

     total cpu time spent up to now is       65.3 secs

     total energy              =   -1345.13838243 Ry
     Harris-Foulkes estimate   =   -1345.13838156 Ry
     estimated scf accuracy    <       0.00000945 Ry

     total magnetization       =     8.86 Bohr mag/cell
     absolute magnetization    =     9.20 Bohr mag/cell

     iteration # 32     ecut=    71.00 Ry     beta=0.70
     Davidson diagonalization with overlap
     ethr =  4.63E-09,  avg # of iterations =  1.0

     negative rho (up, down):  0.000E+00 6.540E-04
 
     Magnetic moment per site:
     atom:    1    charge:   12.8316    magn:    1.8259    constr:    0.0000
     atom:    2    charge:   12.8316    magn:    1.8259    constr:    0.0000
     atom:    3    charge:   12.8316    magn:    1.8259    constr:    0.0000
     atom:    4    charge:   12.7770    magn:    2.6529    constr:    0.0000
     atom:    5    charge:    4.1096    magn:    0.0398    constr:    0.0000

     total cpu time spent up to now is       67.0 secs

     total energy              =   -1345.13838514 Ry
     Harris-Foulkes estimate   =   -1345.13838255 Ry
     estimated scf accuracy    <       0.00001021 Ry

     total magnetization       =     8.85 Bohr mag/cell
     absolute magnetization    =     9.19 Bohr mag/cell

     iteration # 33     ecut=    71.00 Ry     beta=0.70
     Davidson diagonalization with overlap
     ethr =  4.63E-09,  avg # of iterations =  2.0

     negative rho (up, down):  0.000E+00 6.972E-04
 
     Magnetic moment per site:
     atom:    1    charge:   12.8310    magn:    1.8727    constr:    0.0000
     atom:    2    charge:   12.8310    magn:    1.8727    constr:    0.0000
     atom:    3    charge:   12.8310    magn:    1.8727    constr:    0.0000
     atom:    4    charge:   12.7778    magn:    2.6489    constr:    0.0000
     atom:    5    charge:    4.1115    magn:    0.0444    constr:    0.0000

     total cpu time spent up to now is       68.8 secs

     total energy              =   -1345.13816588 Ry
     Harris-Foulkes estimate   =   -1345.13838726 Ry
     estimated scf accuracy    <       0.00001429 Ry

     total magnetization       =     8.83 Bohr mag/cell
     absolute magnetization    =     9.17 Bohr mag/cell

     iteration # 34     ecut=    71.00 Ry     beta=0.70
     Davidson diagonalization with overlap
     ethr =  4.63E-09,  avg # of iterations =  4.1

     negative rho (up, down):  0.000E+00 7.203E-04
 
     Magnetic moment per site:
     atom:    1    charge:   12.8307    magn:    1.8976    constr:    0.0000
     atom:    2    charge:   12.8307    magn:    1.8976    constr:    0.0000
     atom:    3    charge:   12.8307    magn:    1.8976    constr:    0.0000
     atom:    4    charge:   12.7783    magn:    2.6468    constr:    0.0000
     atom:    5    charge:    4.1126    magn:    0.0469    constr:    0.0000

     total cpu time spent up to now is       71.5 secs

     total energy              =   -1345.13827409 Ry
     Harris-Foulkes estimate   =   -1345.13835093 Ry
     estimated scf accuracy    <       0.00001528 Ry

     total magnetization       =     8.99 Bohr mag/cell
     absolute magnetization    =     9.33 Bohr mag/cell

     iteration # 35     ecut=    71.00 Ry     beta=0.70
     Davidson diagonalization with overlap
     ethr =  4.63E-09,  avg # of iterations =  3.5

     negative rho (up, down):  0.000E+00 6.479E-04
 
     Magnetic moment per site:
     atom:    1    charge:   12.8317    magn:    1.8192    constr:    0.0000
     atom:    2    charge:   12.8317    magn:    1.8192    constr:    0.0000
     atom:    3    charge:   12.8317    magn:    1.8192    constr:    0.0000
     atom:    4    charge:   12.7769    magn:    2.6535    constr:    0.0000
     atom:    5    charge:    4.1093    magn:    0.0392    constr:    0.0000

     total cpu time spent up to now is       74.1 secs

     total energy              =   -1345.13805646 Ry
     Harris-Foulkes estimate   =   -1345.13830238 Ry
     estimated scf accuracy    <       0.00010929 Ry

     total magnetization       =     9.02 Bohr mag/cell
     absolute magnetization    =     9.36 Bohr mag/cell

     iteration # 36     ecut=    71.00 Ry     beta=0.70
     Davidson diagonalization with overlap
     ethr =  4.63E-09,  avg # of iterations =  4.1

     negative rho (up, down):  0.000E+00 6.935E-04
 
     Magnetic moment per site:
     atom:    1    charge:   12.8311    magn:    1.8684    constr:    0.0000
     atom:    2    charge:   12.8311    magn:    1.8684    constr:    0.0000
     atom:    3    charge:   12.8311    magn:    1.8684    constr:    0.0000
     atom:    4    charge:   12.7778    magn:    2.6493    constr:    0.0000
     atom:    5    charge:    4.1114    magn:    0.0441    constr:    0.0000

     total cpu time spent up to now is       77.1 secs

     total energy              =   -1345.13813806 Ry
     Harris-Foulkes estimate   =   -1345.13839556 Ry
     estimated scf accuracy    <       0.00002319 Ry

     total magnetization       =     8.80 Bohr mag/cell
     absolute magnetization    =     9.14 Bohr mag/cell

     iteration # 37     ecut=    71.00 Ry     beta=0.70
     Davidson diagonalization with overlap
     ethr =  4.63E-09,  avg # of iterations =  4.1

     negative rho (up, down):  0.000E+00 6.606E-04
 
     Magnetic moment per site:
     atom:    1    charge:   12.8316    magn:    1.8327    constr:    0.0000
     atom:    2    charge:   12.8316    magn:    1.8327    constr:    0.0000
     atom:    3    charge:   12.8316    magn:    1.8327    constr:    0.0000
     atom:    4    charge:   12.7772    magn:    2.6524    constr:    0.0000
     atom:    5    charge:    4.1099    magn:    0.0406    constr:    0.0000

     total cpu time spent up to now is       79.9 secs

     total energy              =   -1345.13829034 Ry
     Harris-Foulkes estimate   =   -1345.13835540 Ry
     estimated scf accuracy    <       0.00001113 Ry

     total magnetization       =     8.98 Bohr mag/cell
     absolute magnetization    =     9.32 Bohr mag/cell

     iteration # 38     ecut=    71.00 Ry     beta=0.70
     Davidson diagonalization with overlap
     ethr =  4.63E-09,  avg # of iterations =  3.9

     negative rho (up, down):  0.000E+00 6.599E-04
 
     Magnetic moment per site:
     atom:    1    charge:   12.8316    magn:    1.8320    constr:    0.0000
     atom:    2    charge:   12.8316    magn:    1.8320    constr:    0.0000
     atom:    3    charge:   12.8316    magn:    1.8320    constr:    0.0000
     atom:    4    charge:   12.7771    magn:    2.6524    constr:    0.0000
     atom:    5    charge:    4.1099    magn:    0.0405    constr:    0.0000

     total cpu time spent up to now is       82.5 secs

     total energy              =   -1345.13838123 Ry
     Harris-Foulkes estimate   =   -1345.13838065 Ry
     estimated scf accuracy    <       0.00000898 Ry

     total magnetization       =     8.86 Bohr mag/cell
     absolute magnetization    =     9.20 Bohr mag/cell

     iteration # 39     ecut=    71.00 Ry     beta=0.70
     Davidson diagonalization with overlap
     ethr =  4.63E-09,  avg # of iterations =  1.0

     negative rho (up, down):  0.000E+00 6.551E-04
 
     Magnetic moment per site:
     atom:    1    charge:   12.8316    magn:    1.8269    constr:    0.0000
     atom:    2    charge:   12.8316    magn:    1.8269    constr:    0.0000
     atom:    3    charge:   12.8316    magn:    1.8269    constr:    0.0000
     atom:    4    charge:   12.7771    magn:    2.6529    constr:    0.0000
     atom:    5    charge:    4.1096    magn:    0.0400    constr:    0.0000

     total cpu time spent up to now is       84.2 secs

     total energy              =   -1345.13838371 Ry
     Harris-Foulkes estimate   =   -1345.13838127 Ry
     estimated scf accuracy    <       0.00000946 Ry

     total magnetization       =     8.86 Bohr mag/cell
     absolute magnetization    =     9.20 Bohr mag/cell

     iteration # 40     ecut=    71.00 Ry     beta=0.70
     Davidson diagonalization with overlap
     ethr =  4.63E-09,  avg # of iterations =  2.0

     negative rho (up, down):  0.000E+00 6.478E-04
 
     Magnetic moment per site:
     atom:    1    charge:   12.8317    magn:    1.8190    constr:    0.0000
     atom:    2    charge:   12.8317    magn:    1.8190    constr:    0.0000
     atom:    3    charge:   12.8317    magn:    1.8190    constr:    0.0000
     atom:    4    charge:   12.7769    magn:    2.6536    constr:    0.0000
     atom:    5    charge:    4.1093    magn:    0.0392    constr:    0.0000

     total cpu time spent up to now is       86.0 secs

     total energy              =   -1345.13838961 Ry
     Harris-Foulkes estimate   =   -1345.13838620 Ry
     estimated scf accuracy    <       0.00001352 Ry

     total magnetization       =     8.84 Bohr mag/cell
     absolute magnetization    =     9.18 Bohr mag/cell

     iteration # 41     ecut=    71.00 Ry     beta=0.70
     Davidson diagonalization with overlap
     ethr =  4.63E-09,  avg # of iterations =  2.9

     negative rho (up, down):  0.000E+00 6.553E-04
 
     Magnetic moment per site:
     atom:    1    charge:   12.8316    magn:    1.8271    constr:    0.0000
     atom:    2    charge:   12.8316    magn:    1.8271    constr:    0.0000
     atom:    3    charge:   12.8316    magn:    1.8271    constr:    0.0000
     atom:    4    charge:   12.7771    magn:    2.6529    constr:    0.0000
     atom:    5    charge:    4.1096    magn:    0.0400    constr:    0.0000

     total cpu time spent up to now is       88.0 secs

     total energy              =   -1345.13837935 Ry
     Harris-Foulkes estimate   =   -1345.13839577 Ry
     estimated scf accuracy    <       0.00002347 Ry

     total magnetization       =     8.80 Bohr mag/cell
     absolute magnetization    =     9.14 Bohr mag/cell

     iteration # 42     ecut=    71.00 Ry     beta=0.70
     Davidson diagonalization with overlap
     ethr =  4.63E-09,  avg # of iterations =  2.8

     negative rho (up, down):  0.000E+00 6.553E-04
 
     Magnetic moment per site:
     atom:    1    charge:   12.8316    magn:    1.8271    constr:    0.0000
     atom:    2    charge:   12.8316    magn:    1.8271    constr:    0.0000
     atom:    3    charge:   12.8316    magn:    1.8271    constr:    0.0000
     atom:    4    charge:   12.7771    magn:    2.6529    constr:    0.0000
     atom:    5    charge:    4.1096    magn:    0.0400    constr:    0.0000

     total cpu time spent up to now is       90.0 secs

     total energy              =   -1345.13838597 Ry
     Harris-Foulkes estimate   =   -1345.13838596 Ry
     estimated scf accuracy    <       0.00001333 Ry

     total magnetization       =     8.84 Bohr mag/cell
     absolute magnetization    =     9.18 Bohr mag/cell

     iteration # 43     ecut=    71.00 Ry     beta=0.70
     Davidson diagonalization with overlap
     ethr =  4.63E-09,  avg # of iterations =  1.0

     negative rho (up, down):  0.000E+00 6.605E-04
 
     Magnetic moment per site:
     atom:    1    charge:   12.8316    magn:    1.8327    constr:    0.0000
     atom:    2    charge:   12.8316    magn:    1.8327    constr:    0.0000
     atom:    3    charge:   12.8316    magn:    1.8327    constr:    0.0000
     atom:    4    charge:   12.7772    magn:    2.6524    constr:    0.0000
     atom:    5    charge:    4.1099    magn:    0.0405    constr:    0.0000

     total cpu time spent up to now is       91.6 secs

     total energy              =   -1345.13837781 Ry
     Harris-Foulkes estimate   =   -1345.13838597 Ry
     estimated scf accuracy    <       0.00001330 Ry

     total magnetization       =     8.84 Bohr mag/cell
     absolute magnetization    =     9.18 Bohr mag/cell

     iteration # 44     ecut=    71.00 Ry     beta=0.70
     Davidson diagonalization with overlap
     ethr =  4.63E-09,  avg # of iterations =  2.2

     negative rho (up, down):  0.000E+00 7.551E-04
 
     Magnetic moment per site:
     atom:    1    charge:   12.8302    magn:    1.9354    constr:    0.0000
     atom:    2    charge:   12.8302    magn:    1.9354    constr:    0.0000
     atom:    3    charge:   12.8302    magn:    1.9354    constr:    0.0000
     atom:    4    charge:   12.7789    magn:    2.6434    constr:    0.0000
     atom:    5    charge:    4.1141    magn:    0.0506    constr:    0.0000

     total cpu time spent up to now is       93.5 secs

     total energy              =   -1345.13746695 Ry
     Harris-Foulkes estimate   =   -1345.13838073 Ry
     estimated scf accuracy    <       0.00000912 Ry

     total magnetization       =     8.86 Bohr mag/cell
     absolute magnetization    =     9.20 Bohr mag/cell

     iteration # 45     ecut=    71.00 Ry     beta=0.70
     Davidson diagonalization with overlap
     ethr =  4.63E-09,  avg # of iterations =  4.2

     negative rho (up, down):  0.000E+00 6.505E-04
 
     Magnetic moment per site:
     atom:    1    charge:   12.8317    magn:    1.8219    constr:    0.0000
     atom:    2    charge:   12.8317    magn:    1.8219    constr:    0.0000
     atom:    3    charge:   12.8317    magn:    1.8219    constr:    0.0000
     atom:    4    charge:   12.7770    magn:    2.6533    constr:    0.0000
     atom:    5    charge:    4.1094    magn:    0.0395    constr:    0.0000

     total cpu time spent up to now is       96.5 secs

     total energy              =   -1345.13798398 Ry
     Harris-Foulkes estimate   =   -1345.13810302 Ry
     estimated scf accuracy    <       0.00077090 Ry

     total magnetization       =     9.00 Bohr mag/cell
     absolute magnetization    =     9.36 Bohr mag/cell

     iteration # 46     ecut=    71.00 Ry     beta=0.70
     Davidson diagonalization with overlap
     ethr =  4.63E-09,  avg # of iterations =  4.2

     negative rho (up, down):  0.000E+00 6.600E-04
 
     Magnetic moment per site:
     atom:    1    charge:   12.8316    magn:    1.8321    constr:    0.0000
     atom:    2    charge:   12.8316    magn:    1.8321    constr:    0.0000
     atom:    3    charge:   12.8316    magn:    1.8321    constr:    0.0000
     atom:    4    charge:   12.7771    magn:    2.6524    constr:    0.0000
     atom:    5    charge:    4.1099    magn:    0.0405    constr:    0.0000

     total cpu time spent up to now is       99.5 secs

     total energy              =   -1345.13837105 Ry
     Harris-Foulkes estimate   =   -1345.13839193 Ry
     estimated scf accuracy    <       0.00001941 Ry

     total magnetization       =     8.81 Bohr mag/cell
     absolute magnetization    =     9.15 Bohr mag/cell

     iteration # 47     ecut=    71.00 Ry     beta=0.70
     Davidson diagonalization with overlap
     ethr =  4.63E-09,  avg # of iterations =  3.0

     negative rho (up, down):  0.000E+00 6.612E-04
 
     Magnetic moment per site:
     atom:    1    charge:   12.8315    magn:    1.8334    constr:    0.0000
     atom:    2    charge:   12.8315    magn:    1.8334    constr:    0.0000
     atom:    3    charge:   12.8315    magn:    1.8334    constr:    0.0000
     atom:    4    charge:   12.7772    magn:    2.6523    constr:    0.0000
     atom:    5    charge:    4.1099    magn:    0.0406    constr:    0.0000

     total cpu time spent up to now is      101.7 secs

     total energy              =   -1345.13837991 Ry
     Harris-Foulkes estimate   =   -1345.13838122 Ry
     estimated scf accuracy    <       0.00000955 Ry

     total magnetization       =     8.86 Bohr mag/cell
     absolute magnetization    =     9.20 Bohr mag/cell

     iteration # 48     ecut=    71.00 Ry     beta=0.70
     Davidson diagonalization with overlap
     ethr =  4.63E-09,  avg # of iterations =  1.0

     negative rho (up, down):  0.000E+00 6.591E-04
 
     Magnetic moment per site:
     atom:    1    charge:   12.8316    magn:    1.8311    constr:    0.0000
     atom:    2    charge:   12.8316    magn:    1.8311    constr:    0.0000
     atom:    3    charge:   12.8316    magn:    1.8311    constr:    0.0000
     atom:    4    charge:   12.7771    magn:    2.6525    constr:    0.0000
     atom:    5    charge:    4.1098    magn:    0.0404    constr:    0.0000

     total cpu time spent up to now is      103.4 secs

     total energy              =   -1345.13838165 Ry
     Harris-Foulkes estimate   =   -1345.13838008 Ry
     estimated scf accuracy    <       0.00000880 Ry

     total magnetization       =     8.86 Bohr mag/cell
     absolute magnetization    =     9.20 Bohr mag/cell

     iteration # 49     ecut=    71.00 Ry     beta=0.70
     Davidson diagonalization with overlap
     ethr =  4.63E-09,  avg # of iterations =  1.0

     negative rho (up, down):  0.000E+00 6.577E-04
 
     Magnetic moment per site:
     atom:    1    charge:   12.8316    magn:    1.8296    constr:    0.0000
     atom:    2    charge:   12.8316    magn:    1.8296    constr:    0.0000
     atom:    3    charge:   12.8316    magn:    1.8296    constr:    0.0000
     atom:    4    charge:   12.7771    magn:    2.6526    constr:    0.0000
     atom:    5    charge:    4.1098    magn:    0.0403    constr:    0.0000

     total cpu time spent up to now is      105.0 secs

     total energy              =   -1345.13838329 Ry
     Harris-Foulkes estimate   =   -1345.13838217 Ry
     estimated scf accuracy    <       0.00001018 Ry

     total magnetization       =     8.85 Bohr mag/cell
     absolute magnetization    =     9.19 Bohr mag/cell

     iteration # 50     ecut=    71.00 Ry     beta=0.70
     Davidson diagonalization with overlap
     ethr =  4.63E-09,  avg # of iterations =  1.0

     negative rho (up, down):  0.000E+00 6.588E-04
 
     Magnetic moment per site:
     atom:    1    charge:   12.8316    magn:    1.8307    constr:    0.0000
     atom:    2    charge:   12.8316    magn:    1.8307    constr:    0.0000
     atom:    3    charge:   12.8316    magn:    1.8307    constr:    0.0000
     atom:    4    charge:   12.7771    magn:    2.6525    constr:    0.0000
     atom:    5    charge:    4.1098    magn:    0.0404    constr:    0.0000

     total cpu time spent up to now is      106.7 secs

     total energy              =   -1345.13838239 Ry
     Harris-Foulkes estimate   =   -1345.13838350 Ry
     estimated scf accuracy    <       0.00001128 Ry

     total magnetization       =     8.85 Bohr mag/cell
     absolute magnetization    =     9.19 Bohr mag/cell

     iteration # 51     ecut=    71.00 Ry     beta=0.70
     Davidson diagonalization with overlap
     ethr =  4.63E-09,  avg # of iterations =  1.0

     negative rho (up, down):  0.000E+00 6.588E-04
 
     Magnetic moment per site:
     atom:    1    charge:   12.8316    magn:    1.8308    constr:    0.0000
     atom:    2    charge:   12.8316    magn:    1.8308    constr:    0.0000
     atom:    3    charge:   12.8316    magn:    1.8308    constr:    0.0000
     atom:    4    charge:   12.7771    magn:    2.6525    constr:    0.0000
     atom:    5    charge:    4.1098    magn:    0.0404    constr:    0.0000

     total cpu time spent up to now is      108.3 secs

     total energy              =   -1345.13838244 Ry
     Harris-Foulkes estimate   =   -1345.13838250 Ry
     estimated scf accuracy    <       0.00001066 Ry

     total magnetization       =     8.85 Bohr mag/cell
     absolute magnetization    =     9.19 Bohr mag/cell

     iteration # 52     ecut=    71.00 Ry     beta=0.70
     Davidson diagonalization with overlap
     ethr =  4.63E-09,  avg # of iterations =  1.0

     negative rho (up, down):  0.000E+00 6.591E-04
 
     Magnetic moment per site:
     atom:    1    charge:   12.8316    magn:    1.8311    constr:    0.0000
     atom:    2    charge:   12.8316    magn:    1.8311    constr:    0.0000
     atom:    3    charge:   12.8316    magn:    1.8311    constr:    0.0000
     atom:    4    charge:   12.7771    magn:    2.6525    constr:    0.0000
     atom:    5    charge:    4.1098    magn:    0.0404    constr:    0.0000

     total cpu time spent up to now is      110.0 secs

     total energy              =   -1345.13838212 Ry
     Harris-Foulkes estimate   =   -1345.13838244 Ry
     estimated scf accuracy    <       0.00001059 Ry

     total magnetization       =     8.85 Bohr mag/cell
     absolute magnetization    =     9.19 Bohr mag/cell

     iteration # 53     ecut=    71.00 Ry     beta=0.70
     Davidson diagonalization with overlap
     ethr =  4.63E-09,  avg # of iterations =  1.0

     negative rho (up, down):  0.000E+00 6.599E-04
 
     Magnetic moment per site:
     atom:    1    charge:   12.8316    magn:    1.8320    constr:    0.0000
     atom:    2    charge:   12.8316    magn:    1.8320    constr:    0.0000
     atom:    3    charge:   12.8316    magn:    1.8320    constr:    0.0000
     atom:    4    charge:   12.7771    magn:    2.6524    constr:    0.0000
     atom:    5    charge:    4.1099    magn:    0.0405    constr:    0.0000

     total cpu time spent up to now is      111.6 secs

     total energy              =   -1345.13838128 Ry
     Harris-Foulkes estimate   =   -1345.13838213 Ry
     estimated scf accuracy    <       0.00001034 Ry

     total magnetization       =     8.85 Bohr mag/cell
     absolute magnetization    =     9.19 Bohr mag/cell

     iteration # 54     ecut=    71.00 Ry     beta=0.70
     Davidson diagonalization with overlap
     ethr =  4.63E-09,  avg # of iterations =  1.0

     negative rho (up, down):  0.000E+00 6.807E-04
 
     Magnetic moment per site:
     atom:    1    charge:   12.8313    magn:    1.8549    constr:    0.0000
     atom:    2    charge:   12.8313    magn:    1.8549    constr:    0.0000
     atom:    3    charge:   12.8313    magn:    1.8549    constr:    0.0000
     atom:    4    charge:   12.7775    magn:    2.6506    constr:    0.0000
     atom:    5    charge:    4.1108    magn:    0.0428    constr:    0.0000

     total cpu time spent up to now is      113.3 secs

     total energy              =   -1345.13832001 Ry
     Harris-Foulkes estimate   =   -1345.13838135 Ry
     estimated scf accuracy    <       0.00000980 Ry

     total magnetization       =     8.86 Bohr mag/cell
     absolute magnetization    =     9.20 Bohr mag/cell

     iteration # 55     ecut=    71.00 Ry     beta=0.70
     Davidson diagonalization with overlap
     ethr =  4.63E-09,  avg # of iterations =  3.2

     negative rho (up, down):  0.000E+00 7.050E-04
 
     Magnetic moment per site:
     atom:    1    charge:   12.8309    magn:    1.8808    constr:    0.0000
     atom:    2    charge:   12.8309    magn:    1.8808    constr:    0.0000
     atom:    3    charge:   12.8309    magn:    1.8808    constr:    0.0000
     atom:    4    charge:   12.7780    magn:    2.6483    constr:    0.0000
     atom:    5    charge:    4.1119    magn:    0.0454    constr:    0.0000

     total cpu time spent up to now is      115.6 secs

     total energy              =   -1345.13829667 Ry
     Harris-Foulkes estimate   =   -1345.13836570 Ry
     estimated scf accuracy    <       0.00000483 Ry

     total magnetization       =     8.94 Bohr mag/cell
     absolute magnetization    =     9.28 Bohr mag/cell

     iteration # 56     ecut=    71.00 Ry     beta=0.70
     Davidson diagonalization with overlap
     ethr =  4.63E-09,  avg # of iterations =  3.5

     negative rho (up, down):  0.000E+00 6.425E-04
 
     Magnetic moment per site:
     atom:    1    charge:   12.8318    magn:    1.8133    constr:    0.0000
     atom:    2    charge:   12.8318    magn:    1.8133    constr:    0.0000
     atom:    3    charge:   12.8318    magn:    1.8133    constr:    0.0000
     atom:    4    charge:   12.7768    magn:    2.6541    constr:    0.0000
     atom:    5    charge:    4.1091    magn:    0.0387    constr:    0.0000

     total cpu time spent up to now is      118.0 secs

     total energy              =   -1345.13809187 Ry
     Harris-Foulkes estimate   =   -1345.13833980 Ry
     estimated scf accuracy    <       0.00002999 Ry

     total magnetization       =     9.00 Bohr mag/cell
     absolute magnetization    =     9.34 Bohr mag/cell

     iteration # 57     ecut=    71.00 Ry     beta=0.70
     Davidson diagonalization with overlap
     ethr =  4.63E-09,  avg # of iterations =  4.1

     negative rho (up, down):  0.000E+00 6.915E-04
 
     Magnetic moment per site:
     atom:    1    charge:   12.8311    magn:    1.8664    constr:    0.0000
     atom:    2    charge:   12.8311    magn:    1.8664    constr:    0.0000
     atom:    3    charge:   12.8311    magn:    1.8664    constr:    0.0000
     atom:    4    charge:   12.7777    magn:    2.6495    constr:    0.0000
     atom:    5    charge:    4.1113    magn:    0.0439    constr:    0.0000

     total cpu time spent up to now is      121.0 secs

     total energy              =   -1345.13809518 Ry
     Harris-Foulkes estimate   =   -1345.13840447 Ry
     estimated scf accuracy    <       0.00003375 Ry

     total magnetization       =     8.77 Bohr mag/cell
     absolute magnetization    =     9.11 Bohr mag/cell

     iteration # 58     ecut=    71.00 Ry     beta=0.70
     Davidson diagonalization with overlap
     ethr =  4.63E-09,  avg # of iterations =  4.1

     negative rho (up, down):  0.000E+00 7.437E-04
 
     Magnetic moment per site:
     atom:    1    charge:   12.8303    magn:    1.9227    constr:    0.0000
     atom:    2    charge:   12.8303    magn:    1.9227    constr:    0.0000
     atom:    3    charge:   12.8303    magn:    1.9227    constr:    0.0000
     atom:    4    charge:   12.7787    magn:    2.6447    constr:    0.0000
     atom:    5    charge:    4.1136    magn:    0.0495    constr:    0.0000

     total cpu time spent up to now is      123.8 secs

     total energy              =   -1345.13805883 Ry
     Harris-Foulkes estimate   =   -1345.13835724 Ry
     estimated scf accuracy    <       0.00000921 Ry

     total magnetization       =     8.98 Bohr mag/cell
     absolute magnetization    =     9.31 Bohr mag/cell

     iteration # 59     ecut=    71.00 Ry     beta=0.70
     Davidson diagonalization with overlap
     ethr =  4.63E-09,  avg # of iterations =  4.1

     negative rho (up, down):  0.000E+00 6.697E-04
 
     Magnetic moment per site:
     atom:    1    charge:   12.8314    magn:    1.8425    constr:    0.0000
     atom:    2    charge:   12.8314    magn:    1.8425    constr:    0.0000
     atom:    3    charge:   12.8314    magn:    1.8425    constr:    0.0000
     atom:    4    charge:   12.7773    magn:    2.6515    constr:    0.0000
     atom:    5    charge:    4.1103    magn:    0.0416    constr:    0.0000

     total cpu time spent up to now is      126.7 secs

     total energy              =   -1345.13817267 Ry
     Harris-Foulkes estimate   =   -1345.13819054 Ry
     estimated scf accuracy    <       0.00045465 Ry

     total magnetization       =     9.01 Bohr mag/cell
     absolute magnetization    =     9.36 Bohr mag/cell

     iteration # 60     ecut=    71.00 Ry     beta=0.70
     Davidson diagonalization with overlap
     ethr =  4.63E-09,  avg # of iterations =  4.1

     negative rho (up, down):  0.000E+00 6.540E-04
 
     Magnetic moment per site:
     atom:    1    charge:   12.8316    magn:    1.8256    constr:    0.0000
     atom:    2    charge:   12.8316    magn:    1.8256    constr:    0.0000
     atom:    3    charge:   12.8316    magn:    1.8256    constr:    0.0000
     atom:    4    charge:   12.7770    magn:    2.6530    constr:    0.0000
     atom:    5    charge:    4.1096    magn:    0.0399    constr:    0.0000

     total cpu time spent up to now is      129.4 secs

     total energy              =   -1345.13836213 Ry
     Harris-Foulkes estimate   =   -1345.13837340 Ry
     estimated scf accuracy    <       0.00000535 Ry

     total magnetization       =     8.90 Bohr mag/cell
     absolute magnetization    =     9.24 Bohr mag/cell

     iteration # 61     ecut=    71.00 Ry     beta=0.70
     Davidson diagonalization with overlap
     ethr =  4.63E-09,  avg # of iterations =  3.1

     negative rho (up, down):  0.000E+00 6.579E-04
 
     Magnetic moment per site:
     atom:    1    charge:   12.8316    magn:    1.8299    constr:    0.0000
     atom:    2    charge:   12.8316    magn:    1.8299    constr:    0.0000
     atom:    3    charge:   12.8316    magn:    1.8299    constr:    0.0000
     atom:    4    charge:   12.7771    magn:    2.6526    constr:    0.0000
     atom:    5    charge:    4.1098    magn:    0.0403    constr:    0.0000

     total cpu time spent up to now is      131.7 secs

     total energy              =   -1345.13838152 Ry
     Harris-Foulkes estimate   =   -1345.13838760 Ry
     estimated scf accuracy    <       0.00001506 Ry

     total magnetization       =     8.83 Bohr mag/cell
     absolute magnetization    =     9.17 Bohr mag/cell

     iteration # 62     ecut=    71.00 Ry     beta=0.70
     Davidson diagonalization with overlap
     ethr =  4.63E-09,  avg # of iterations =  1.9

     negative rho (up, down):  0.000E+00 6.880E-04
 
     Magnetic moment per site:
     atom:    1    charge:   12.8312    magn:    1.8624    constr:    0.0000
     atom:    2    charge:   12.8312    magn:    1.8624    constr:    0.0000
     atom:    3    charge:   12.8312    magn:    1.8624    constr:    0.0000
     atom:    4    charge:   12.7777    magn:    2.6498    constr:    0.0000
     atom:    5    charge:    4.1111    magn:    0.0435    constr:    0.0000

     total cpu time spent up to now is      133.4 secs

     total energy              =   -1345.13826937 Ry
     Harris-Foulkes estimate   =   -1345.13838325 Ry
     estimated scf accuracy    <       0.00001120 Ry

     total magnetization       =     8.85 Bohr mag/cell
     absolute magnetization    =     9.19 Bohr mag/cell

     iteration # 63     ecut=    71.00 Ry     beta=0.70
     Davidson diagonalization with overlap
     ethr =  4.63E-09,  avg # of iterations =  3.8

     negative rho (up, down):  0.000E+00 6.778E-04
 
     Magnetic moment per site:
     atom:    1    charge:   12.8313    magn:    1.8514    constr:    0.0000
     atom:    2    charge:   12.8313    magn:    1.8514    constr:    0.0000
     atom:    3    charge:   12.8313    magn:    1.8514    constr:    0.0000
     atom:    4    charge:   12.7775    magn:    2.6508    constr:    0.0000
     atom:    5    charge:    4.1107    magn:    0.0424    constr:    0.0000

     total cpu time spent up to now is      135.9 secs

     total energy              =   -1345.13835951 Ry
     Harris-Foulkes estimate   =   -1345.13836052 Ry
     estimated scf accuracy    <       0.00000728 Ry

     total magnetization       =     8.97 Bohr mag/cell
     absolute magnetization    =     9.30 Bohr mag/cell

     iteration # 64     ecut=    71.00 Ry     beta=0.70
     Davidson diagonalization with overlap
     ethr =  4.63E-09,  avg # of iterations =  3.0

     negative rho (up, down):  0.000E+00 6.659E-04
 
     Magnetic moment per site:
     atom:    1    charge:   12.8315    magn:    1.8385    constr:    0.0000
     atom:    2    charge:   12.8315    magn:    1.8385    constr:    0.0000
     atom:    3    charge:   12.8315    magn:    1.8385    constr:    0.0000
     atom:    4    charge:   12.7773    magn:    2.6519    constr:    0.0000
     atom:    5    charge:    4.1101    magn:    0.0411    constr:    0.0000

     total cpu time spent up to now is      138.0 secs

     total energy              =   -1345.13836277 Ry
     Harris-Foulkes estimate   =   -1345.13836792 Ry
     estimated scf accuracy    <       0.00000472 Ry

     total magnetization       =     8.93 Bohr mag/cell
     absolute magnetization    =     9.27 Bohr mag/cell

     iteration # 65     ecut=    71.00 Ry     beta=0.70
     Davidson diagonalization with overlap
     ethr =  4.63E-09,  avg # of iterations =  3.0

     negative rho (up, down):  0.000E+00 6.645E-04
 
     Magnetic moment per site:
     atom:    1    charge:   12.8315    magn:    1.8370    constr:    0.0000
     atom:    2    charge:   12.8315    magn:    1.8370    constr:    0.0000
     atom:    3    charge:   12.8315    magn:    1.8370    constr:    0.0000
     atom:    4    charge:   12.7772    magn:    2.6520    constr:    0.0000
     atom:    5    charge:    4.1101    magn:    0.0410    constr:    0.0000

     total cpu time spent up to now is      140.2 secs

     total energy              =   -1345.13837709 Ry
     Harris-Foulkes estimate   =   -1345.13837619 Ry
     estimated scf accuracy    <       0.00000655 Ry

     total magnetization       =     8.89 Bohr mag/cell
     absolute magnetization    =     9.22 Bohr mag/cell

     iteration # 66     ecut=    71.00 Ry     beta=0.70
     Davidson diagonalization with overlap
     ethr =  4.63E-09,  avg # of iterations =  1.0

     negative rho (up, down):  0.000E+00 6.544E-04
 
     Magnetic moment per site:
     atom:    1    charge:   12.8316    magn:    1.8261    constr:    0.0000
     atom:    2    charge:   12.8316    magn:    1.8261    constr:    0.0000
     atom:    3    charge:   12.8316    magn:    1.8261    constr:    0.0000
     atom:    4    charge:   12.7770    magn:    2.6529    constr:    0.0000
     atom:    5    charge:    4.1096    magn:    0.0399    constr:    0.0000

     total cpu time spent up to now is      141.8 secs

     total energy              =   -1345.13837615 Ry
     Harris-Foulkes estimate   =   -1345.13837729 Ry
     estimated scf accuracy    <       0.00000710 Ry

     total magnetization       =     8.88 Bohr mag/cell
     absolute magnetization    =     9.22 Bohr mag/cell

     iteration # 67     ecut=    71.00 Ry     beta=0.70
     Davidson diagonalization with overlap
     ethr =  4.63E-09,  avg # of iterations =  2.9

     negative rho (up, down):  0.000E+00 6.499E-04
 
     Magnetic moment per site:
     atom:    1    charge:   12.8317    magn:    1.8213    constr:    0.0000
     atom:    2    charge:   12.8317    magn:    1.8213    constr:    0.0000
     atom:    3    charge:   12.8317    magn:    1.8213    constr:    0.0000
     atom:    4    charge:   12.7770    magn:    2.6533    constr:    0.0000
     atom:    5    charge:    4.1094    magn:    0.0394    constr:    0.0000

     total cpu time spent up to now is      144.1 secs

     total energy              =   -1345.13839051 Ry
     Harris-Foulkes estimate   =   -1345.13838710 Ry
     estimated scf accuracy    <       0.00001463 Ry

     total magnetization       =     8.83 Bohr mag/cell
     absolute magnetization    =     9.17 Bohr mag/cell

     iteration # 68     ecut=    71.00 Ry     beta=0.70
     Davidson diagonalization with overlap
     ethr =  4.63E-09,  avg # of iterations =  2.1

     negative rho (up, down):  0.000E+00 7.142E-04
 
     Magnetic moment per site:
     atom:    1    charge:   12.8308    magn:    1.8907    constr:    0.0000
     atom:    2    charge:   12.8308    magn:    1.8907    constr:    0.0000
     atom:    3    charge:   12.8308    magn:    1.8907    constr:    0.0000
     atom:    4    charge:   12.7781    magn:    2.6474    constr:    0.0000
     atom:    5    charge:    4.1123    magn:    0.0463    constr:    0.0000

     total cpu time spent up to now is      146.0 secs

     total energy              =   -1345.13792603 Ry
     Harris-Foulkes estimate   =   -1345.13839283 Ry
     estimated scf accuracy    <       0.00002057 Ry

     total magnetization       =     8.81 Bohr mag/cell
     absolute magnetization    =     9.15 Bohr mag/cell

     iteration # 69     ecut=    71.00 Ry     beta=0.70
     Davidson diagonalization with overlap
     ethr =  4.63E-09,  avg # of iterations =  4.1

     negative rho (up, down):  0.000E+00 7.235E-04
 
     Magnetic moment per site:
     atom:    1    charge:   12.8306    magn:    1.9009    constr:    0.0000
     atom:    2    charge:   12.8306    magn:    1.9009    constr:    0.0000
     atom:    3    charge:   12.8306    magn:    1.9009    constr:    0.0000
     atom:    4    charge:   12.7783    magn:    2.6465    constr:    0.0000
     atom:    5    charge:    4.1127    magn:    0.0473    constr:    0.0000

     total cpu time spent up to now is      149.0 secs

     total energy              =   -1345.13828859 Ry
     Harris-Foulkes estimate   =   -1345.13832038 Ry
     estimated scf accuracy    <       0.00006716 Ry

     total magnetization       =     9.02 Bohr mag/cell
     absolute magnetization    =     9.36 Bohr mag/cell

     iteration # 70     ecut=    71.00 Ry     beta=0.70
     Davidson diagonalization with overlap
     ethr =  4.63E-09,  avg # of iterations =  3.0

     negative rho (up, down):  0.000E+00 6.768E-04
 
     Magnetic moment per site:
     atom:    1    charge:   12.8313    magn:    1.8502    constr:    0.0000
     atom:    2    charge:   12.8313    magn:    1.8502    constr:    0.0000
     atom:    3    charge:   12.8313    magn:    1.8502    constr:    0.0000
     atom:    4    charge:   12.7775    magn:    2.6509    constr:    0.0000
     atom:    5    charge:    4.1106    magn:    0.0423    constr:    0.0000

     total cpu time spent up to now is      151.2 secs

     total energy              =   -1345.13826025 Ry
     Harris-Foulkes estimate   =   -1345.13829180 Ry
     estimated scf accuracy    <       0.00013625 Ry

     total magnetization       =     9.02 Bohr mag/cell
     absolute magnetization    =     9.36 Bohr mag/cell

     iteration # 71     ecut=    71.00 Ry     beta=0.70
     Davidson diagonalization with overlap
     ethr =  4.63E-09,  avg # of iterations =  4.1

     negative rho (up, down):  0.000E+00 6.755E-04
 
     Magnetic moment per site:
     atom:    1    charge:   12.8313    magn:    1.8489    constr:    0.0000
     atom:    2    charge:   12.8313    magn:    1.8489    constr:    0.0000
     atom:    3    charge:   12.8313    magn:    1.8489    constr:    0.0000
     atom:    4    charge:   12.7774    magn:    2.6510    constr:    0.0000
     atom:    5    charge:    4.1106    magn:    0.0422    constr:    0.0000

     total cpu time spent up to now is      153.8 secs

     total energy              =   -1345.13836932 Ry
     Harris-Foulkes estimate   =   -1345.13836863 Ry
     estimated scf accuracy    <       0.00000468 Ry

     total magnetization       =     8.93 Bohr mag/cell
     absolute magnetization    =     9.27 Bohr mag/cell

     iteration # 72     ecut=    71.00 Ry     beta=0.70
     Davidson diagonalization with overlap
     ethr =  4.63E-09,  avg # of iterations =  1.1

     negative rho (up, down):  0.000E+00 6.766E-04
 
     Magnetic moment per site:
     atom:    1    charge:   12.8313    magn:    1.8501    constr:    0.0000
     atom:    2    charge:   12.8313    magn:    1.8501    constr:    0.0000
     atom:    3    charge:   12.8313    magn:    1.8501    constr:    0.0000
     atom:    4    charge:   12.7775    magn:    2.6509    constr:    0.0000
     atom:    5    charge:    4.1106    magn:    0.0423    constr:    0.0000

     total cpu time spent up to now is      155.4 secs

     total energy              =   -1345.13836859 Ry
     Harris-Foulkes estimate   =   -1345.13836947 Ry
     estimated scf accuracy    <       0.00000466 Ry

     total magnetization       =     8.92 Bohr mag/cell
     absolute magnetization    =     9.26 Bohr mag/cell

     iteration # 73     ecut=    71.00 Ry     beta=0.70
     Davidson diagonalization with overlap
     ethr =  4.63E-09,  avg # of iterations =  1.0

     negative rho (up, down):  0.000E+00 6.799E-04
 
     Magnetic moment per site:
     atom:    1    charge:   12.8313    magn:    1.8537    constr:    0.0000
     atom:    2    charge:   12.8313    magn:    1.8537    constr:    0.0000
     atom:    3    charge:   12.8313    magn:    1.8537    constr:    0.0000
     atom:    4    charge:   12.7775    magn:    2.6506    constr:    0.0000
     atom:    5    charge:    4.1108    magn:    0.0426    constr:    0.0000

     total cpu time spent up to now is      157.1 secs

     total energy              =   -1345.13836551 Ry
     Harris-Foulkes estimate   =   -1345.13836871 Ry
     estimated scf accuracy    <       0.00000469 Ry

     total magnetization       =     8.93 Bohr mag/cell
     absolute magnetization    =     9.27 Bohr mag/cell

     iteration # 74     ecut=    71.00 Ry     beta=0.70
     Davidson diagonalization with overlap
     ethr =  4.63E-09,  avg # of iterations =  1.8

     negative rho (up, down):  0.000E+00 6.673E-04
 
     Magnetic moment per site:
     atom:    1    charge:   12.8315    magn:    1.8400    constr:    0.0000
     atom:    2    charge:   12.8315    magn:    1.8400    constr:    0.0000
     atom:    3    charge:   12.8315    magn:    1.8400    constr:    0.0000
     atom:    4    charge:   12.7773    magn:    2.6517    constr:    0.0000
     atom:    5    charge:    4.1102    magn:    0.0413    constr:    0.0000

     total cpu time spent up to now is      158.8 secs

     total energy              =   -1345.13836042 Ry
     Harris-Foulkes estimate   =   -1345.13836650 Ry
     estimated scf accuracy    <       0.00000487 Ry

     total magnetization       =     8.94 Bohr mag/cell
     absolute magnetization    =     9.28 Bohr mag/cell

     iteration # 75     ecut=    71.00 Ry     beta=0.70
     Davidson diagonalization with overlap
     ethr =  4.63E-09,  avg # of iterations =  3.1

     negative rho (up, down):  0.000E+00 6.705E-04
 
     Magnetic moment per site:
     atom:    1    charge:   12.8314    magn:    1.8434    constr:    0.0000
     atom:    2    charge:   12.8314    magn:    1.8434    constr:    0.0000
     atom:    3    charge:   12.8314    magn:    1.8434    constr:    0.0000
     atom:    4    charge:   12.7773    magn:    2.6514    constr:    0.0000
     atom:    5    charge:    4.1103    magn:    0.0416    constr:    0.0000

     total cpu time spent up to now is      161.0 secs

     total energy              =   -1345.13837182 Ry
     Harris-Foulkes estimate   =   -1345.13837514 Ry
     estimated scf accuracy    <       0.00000603 Ry

     total magnetization       =     8.89 Bohr mag/cell
     absolute magnetization    =     9.23 Bohr mag/cell

     iteration # 76     ecut=    71.00 Ry     beta=0.70
     Davidson diagonalization with overlap
     ethr =  4.63E-09,  avg # of iterations =  1.2

     negative rho (up, down):  0.000E+00 6.696E-04
 
     Magnetic moment per site:
     atom:    1    charge:   12.8314    magn:    1.8424    constr:    0.0000
     atom:    2    charge:   12.8314    magn:    1.8424    constr:    0.0000
     atom:    3    charge:   12.8314    magn:    1.8424    constr:    0.0000
     atom:    4    charge:   12.7773    magn:    2.6515    constr:    0.0000
     atom:    5    charge:    4.1103    magn:    0.0415    constr:    0.0000

     total cpu time spent up to now is      162.7 secs

     total energy              =   -1345.13837339 Ry
     Harris-Foulkes estimate   =   -1345.13837283 Ry
     estimated scf accuracy    <       0.00000526 Ry

     total magnetization       =     8.90 Bohr mag/cell
[...]

     total cpu time spent up to now is      175.4 secs

     total energy              =   -1345.13836768 Ry
     Harris-Foulkes estimate   =   -1345.13836657 Ry
     estimated scf accuracy    <       0.00000479 Ry

     total magnetization       =     8.94 Bohr mag/cell
     absolute magnetization    =     9.28 Bohr mag/cell

     iteration # 83     ecut=    71.00 Ry     beta=0.70
     Davidson diagonalization with overlap
     ethr =  4.63E-09,  avg # of iterations =  1.1

     negative rho (up, down):  0.000E+00 6.776E-04
 
     Magnetic moment per site:
     atom:    1    charge:   12.8313    magn:    1.8512    constr:    0.0000
     atom:    2    charge:   12.8313    magn:    1.8512    constr:    0.0000
     atom:    3    charge:   12.8313    magn:    1.8512    constr:    0.0000
     atom:    4    charge:   12.7775    magn:    2.6508    constr:    0.0000
     atom:    5    charge:    4.1106    magn:    0.0424    constr:    0.0000

     total cpu time spent up to now is      177.2 secs

     total energy              =   -1345.13836804 Ry
     Harris-Foulkes estimate   =   -1345.13836823 Ry
     estimated scf accuracy    <       0.00000457 Ry

     total magnetization       =     8.93 Bohr mag/cell
     absolute magnetization    =     9.27 Bohr mag/cell

     iteration # 84     ecut=    71.00 Ry     beta=0.70
     Davidson diagonalization with overlap
     ethr =  4.63E-09,  avg # of iterations =  1.0

     negative rho (up, down):  0.000E+00 6.766E-04
 
     Magnetic moment per site:
     atom:    1    charge:   12.8313    magn:    1.8500    constr:    0.0000
     atom:    2    charge:   12.8313    magn:    1.8500    constr:    0.0000
     atom:    3    charge:   12.8313    magn:    1.8500    constr:    0.0000
     atom:    4    charge:   12.7775    magn:    2.6509    constr:    0.0000
     atom:    5    charge:    4.1106    magn:    0.0423    constr:    0.0000

     total cpu time spent up to now is      178.8 secs

     total energy              =   -1345.13836864 Ry
     Harris-Foulkes estimate   =   -1345.13836805 Ry
     estimated scf accuracy    <       0.00000463 Ry

     total magnetization       =     8.93 Bohr mag/cell
     absolute magnetization    =     9.27 Bohr mag/cell

     iteration # 85     ecut=    71.00 Ry     beta=0.70
     Davidson diagonalization with overlap
     ethr =  4.63E-09,  avg # of iterations =  1.0

     negative rho (up, down):  0.000E+00 6.769E-04
 
     Magnetic moment per site:
     atom:    1    charge:   12.8313    magn:    1.8504    constr:    0.0000
     atom:    2    charge:   12.8313    magn:    1.8504    constr:    0.0000
     atom:    3    charge:   12.8313    magn:    1.8504    constr:    0.0000
     atom:    4    charge:   12.7775    magn:    2.6509    constr:    0.0000
     atom:    5    charge:    4.1106    magn:    0.0423    constr:    0.0000

     total cpu time spent up to now is      180.4 secs

     total energy              =   -1345.13836853 Ry
     Harris-Foulkes estimate   =   -1345.13836875 Ry
     estimated scf accuracy    <       0.00000463 Ry

     total magnetization       =     8.93 Bohr mag/cell
     absolute magnetization    =     9.27 Bohr mag/cell

     iteration # 86     ecut=    71.00 Ry     beta=0.70
     Davidson diagonalization with overlap
     ethr =  4.63E-09,  avg # of iterations =  1.0

     negative rho (up, down):  0.000E+00 6.776E-04
 
     Magnetic moment per site:
     atom:    1    charge:   12.8313    magn:    1.8511    constr:    0.0000
     atom:    2    charge:   12.8313    magn:    1.8511    constr:    0.0000
     atom:    3    charge:   12.8313    magn:    1.8511    constr:    0.0000
     atom:    4    charge:   12.7775    magn:    2.6508    constr:    0.0000
     atom:    5    charge:    4.1106    magn:    0.0424    constr:    0.0000

     total cpu time spent up to now is      182.1 secs

     total energy              =   -1345.13836804 Ry
     Harris-Foulkes estimate   =   -1345.13836854 Ry
     estimated scf accuracy    <       0.00000460 Ry

     total magnetization       =     8.93 Bohr mag/cell
     absolute magnetization    =     9.27 Bohr mag/cell

     iteration # 87     ecut=    71.00 Ry     beta=0.70
     Davidson diagonalization with overlap
     ethr =  4.63E-09,  avg # of iterations =  1.0

     negative rho (up, down):  0.000E+00 6.716E-04
 
     Magnetic moment per site:
     atom:    1    charge:   12.8314    magn:    1.8447    constr:    0.0000
     atom:    2    charge:   12.8314    magn:    1.8447    constr:    0.0000
     atom:    3    charge:   12.8314    magn:    1.8447    constr:    0.0000
     atom:    4    charge:   12.7774    magn:    2.6514    constr:    0.0000
     atom:    5    charge:    4.1104    magn:    0.0418    constr:    0.0000

     total cpu time spent up to now is      183.8 secs

     total energy              =   -1345.13836877 Ry
     Harris-Foulkes estimate   =   -1345.13836809 Ry
     estimated scf accuracy    <       0.00000467 Ry

     total magnetization       =     8.93 Bohr mag/cell
     absolute magnetization    =     9.27 Bohr mag/cell

     iteration # 88     ecut=    71.00 Ry     beta=0.70
     Davidson diagonalization with overlap
     ethr =  4.63E-09,  avg # of iterations =  2.5

     negative rho (up, down):  0.000E+00 6.692E-04
 
     Magnetic moment per site:
     atom:    1    charge:   12.8314    magn:    1.8420    constr:    0.0000
     atom:    2    charge:   12.8314    magn:    1.8420    constr:    0.0000
     atom:    3    charge:   12.8314    magn:    1.8420    constr:    0.0000
     atom:    4    charge:   12.7773    magn:    2.6516    constr:    0.0000
     atom:    5    charge:    4.1103    magn:    0.0415    constr:    0.0000

     total cpu time spent up to now is      185.6 secs

     total energy              =   -1345.13837314 Ry
     Harris-Foulkes estimate   =   -1345.13837203 Ry
     estimated scf accuracy    <       0.00000491 Ry

     total magnetization       =     8.91 Bohr mag/cell
     absolute magnetization    =     9.25 Bohr mag/cell

     iteration # 89     ecut=    71.00 Ry     beta=0.70
     Davidson diagonalization with overlap
     ethr =  4.63E-09,  avg # of iterations =  1.0

     negative rho (up, down):  0.000E+00 6.990E-04
 
     Magnetic moment per site:
     atom:    1    charge:   12.8310    magn:    1.8739    constr:    0.0000
     atom:    2    charge:   12.8310    magn:    1.8739    constr:    0.0000
     atom:    3    charge:   12.8310    magn:    1.8739    constr:    0.0000
     atom:    4    charge:   12.7779    magn:    2.6488    constr:    0.0000
     atom:    5    charge:    4.1116    magn:    0.0446    constr:    0.0000

     total cpu time spent up to now is      187.3 secs

     total energy              =   -1345.13827356 Ry
     Harris-Foulkes estimate   =   -1345.13837371 Ry
     estimated scf accuracy    <       0.00000535 Ry

     total magnetization       =     8.90 Bohr mag/cell
     absolute magnetization    =     9.24 Bohr mag/cell

     iteration # 90     ecut=    71.00 Ry     beta=0.70
     Davidson diagonalization with overlap
     ethr =  4.63E-09,  avg # of iterations =  3.8

     negative rho (up, down):  0.000E+00 6.821E-04
 
     Magnetic moment per site:
     atom:    1    charge:   12.8313    magn:    1.8560    constr:    0.0000
     atom:    2    charge:   12.8313    magn:    1.8560    constr:    0.0000
     atom:    3    charge:   12.8313    magn:    1.8560    constr:    0.0000
     atom:    4    charge:   12.7776    magn:    2.6504    constr:    0.0000
     atom:    5    charge:    4.1109    magn:    0.0429    constr:    0.0000

     total cpu time spent up to now is      189.8 secs

     total energy              =   -1345.13834592 Ry
     Harris-Foulkes estimate   =   -1345.13834944 Ry
     estimated scf accuracy    <       0.00001765 Ry

     total magnetization       =     8.99 Bohr mag/cell
     absolute magnetization    =     9.33 Bohr mag/cell

     iteration # 91     ecut=    71.00 Ry     beta=0.70
     Davidson diagonalization with overlap
     ethr =  4.63E-09,  avg # of iterations =  3.1

     negative rho (up, down):  0.000E+00 6.824E-04
 
     Magnetic moment per site:
     atom:    1    charge:   12.8312    magn:    1.8566    constr:    0.0000
     atom:    2    charge:   12.8312    magn:    1.8566    constr:    0.0000
     atom:    3    charge:   12.8312    magn:    1.8566    constr:    0.0000
     atom:    4    charge:   12.7776    magn:    2.6503    constr:    0.0000
     atom:    5    charge:    4.1109    magn:    0.0430    constr:    0.0000

     total cpu time spent up to now is      192.1 secs

     total energy              =   -1345.13836463 Ry
     Harris-Foulkes estimate   =   -1345.13836499 Ry
     estimated scf accuracy    <       0.00000514 Ry

     total magnetization       =     8.95 Bohr mag/cell
     absolute magnetization    =     9.29 Bohr mag/cell

     iteration # 92     ecut=    71.00 Ry     beta=0.70
     Davidson diagonalization with overlap
     ethr =  4.63E-09,  avg # of iterations =  1.0

     negative rho (up, down):  0.000E+00 6.746E-04
 
     Magnetic moment per site:
     atom:    1    charge:   12.8313    magn:    1.8481    constr:    0.0000
     atom:    2    charge:   12.8313    magn:    1.8481    constr:    0.0000
     atom:    3    charge:   12.8313    magn:    1.8481    constr:    0.0000
     atom:    4    charge:   12.7774    magn:    2.6511    constr:    0.0000
     atom:    5    charge:    4.1105    magn:    0.0421    constr:    0.0000

     total cpu time spent up to now is      193.8 secs

     total energy              =   -1345.13836463 Ry
     Harris-Foulkes estimate   =   -1345.13836465 Ry
     estimated scf accuracy    <       0.00000521 Ry

     total magnetization       =     8.95 Bohr mag/cell
     absolute magnetization    =     9.29 Bohr mag/cell

     iteration # 93     ecut=    71.00 Ry     beta=0.70
     Davidson diagonalization with overlap
     ethr =  4.63E-09,  avg # of iterations =  2.9

     negative rho (up, down):  0.000E+00 6.659E-04
 
     Magnetic moment per site:
     atom:    1    charge:   12.8315    magn:    1.8387    constr:    0.0000
     atom:    2    charge:   12.8315    magn:    1.8387    constr:    0.0000
     atom:    3    charge:   12.8315    magn:    1.8387    constr:    0.0000
     atom:    4    charge:   12.7773    magn:    2.6519    constr:    0.0000
     atom:    5    charge:    4.1101    magn:    0.0412    constr:    0.0000

     total cpu time spent up to now is      196.0 secs

     total energy              =   -1345.13836865 Ry
     Harris-Foulkes estimate   =   -1345.13836988 Ry
     estimated scf accuracy    <       0.00000429 Ry

     total magnetization       =     8.92 Bohr mag/cell
     absolute magnetization    =     9.26 Bohr mag/cell

     iteration # 94     ecut=    71.00 Ry     beta=0.70
     Davidson diagonalization with overlap
     ethr =  4.63E-09,  avg # of iterations =  3.0

     negative rho (up, down):  0.000E+00 6.656E-04
 
     Magnetic moment per site:
     atom:    1    charge:   12.8315    magn:    1.8384    constr:    0.0000
     atom:    2    charge:   12.8315    magn:    1.8384    constr:    0.0000
     atom:    3    charge:   12.8315    magn:    1.8384    constr:    0.0000
     atom:    4    charge:   12.7773    magn:    2.6519    constr:    0.0000
     atom:    5    charge:    4.1101    magn:    0.0411    constr:    0.0000

     total cpu time spent up to now is      198.2 secs

     total energy              =   -1345.13837620 Ry
     Harris-Foulkes estimate   =   -1345.13837601 Ry
     estimated scf accuracy    <       0.00000612 Ry

     total magnetization       =     8.89 Bohr mag/cell
     absolute magnetization    =     9.22 Bohr mag/cell

     iteration # 95     ecut=    71.00 Ry     beta=0.70
     Davidson diagonalization with overlap
     ethr =  4.63E-09,  avg # of iterations =  1.0

     negative rho (up, down):  0.000E+00 6.656E-04
 
     Magnetic moment per site:
     atom:    1    charge:   12.8315    magn:    1.8383    constr:    0.0000
     atom:    2    charge:   12.8315    magn:    1.8383    constr:    0.0000
     atom:    3    charge:   12.8315    magn:    1.8383    constr:    0.0000
     atom:    4    charge:   12.7773    magn:    2.6519    constr:    0.0000
     atom:    5    charge:    4.1101    magn:    0.0411    constr:    0.0000

     total cpu time spent up to now is      199.9 secs

     total energy              =   -1345.13837625 Ry
     Harris-Foulkes estimate   =   -1345.13837621 Ry
     estimated scf accuracy    <       0.00000618 Ry

     total magnetization       =     8.89 Bohr mag/cell
     absolute magnetization    =     9.22 Bohr mag/cell

     iteration # 96     ecut=    71.00 Ry     beta=0.70
     Davidson diagonalization with overlap
     ethr =  4.63E-09,  avg # of iterations =  1.0

     negative rho (up, down):  0.000E+00 6.988E-04
 
     Magnetic moment per site:
     atom:    1    charge:   12.8310    magn:    1.8742    constr:    0.0000
     atom:    2    charge:   12.8310    magn:    1.8742    constr:    0.0000
     atom:    3    charge:   12.8310    magn:    1.8742    constr:    0.0000
     atom:    4    charge:   12.7779    magn:    2.6488    constr:    0.0000
     atom:    5    charge:    4.1116    magn:    0.0446    constr:    0.0000

     total cpu time spent up to now is      201.6 secs

     total energy              =   -1345.13824995 Ry
     Harris-Foulkes estimate   =   -1345.13837625 Ry
     estimated scf accuracy    <       0.00000612 Ry

     total magnetization       =     8.89 Bohr mag/cell
     absolute magnetization    =     9.22 Bohr mag/cell

     iteration # 97     ecut=    71.00 Ry     beta=0.70
     Davidson diagonalization with overlap
     ethr =  4.63E-09,  avg # of iterations =  3.9

     negative rho (up, down):  0.000E+00 7.035E-04
 
     Magnetic moment per site:
     atom:    1    charge:   12.8309    magn:    1.8791    constr:    0.0000
     atom:    2    charge:   12.8309    magn:    1.8791    constr:    0.0000
     atom:    3    charge:   12.8309    magn:    1.8791    constr:    0.0000
     atom:    4    charge:   12.7779    magn:    2.6484    constr:    0.0000
     atom:    5    charge:    4.1118    magn:    0.0451    constr:    0.0000

     total cpu time spent up to now is      204.2 secs

     total energy              =   -1345.13834134 Ry
     Harris-Foulkes estimate   =   -1345.13834912 Ry
     estimated scf accuracy    <       0.00001792 Ry

     total magnetization       =     8.99 Bohr mag/cell
     absolute magnetization    =     9.33 Bohr mag/cell

     iteration # 98     ecut=    71.00 Ry     beta=0.70
     Davidson diagonalization with overlap
     ethr =  4.63E-09,  avg # of iterations =  2.0

     negative rho (up, down):  0.000E+00 7.071E-04
 
     Magnetic moment per site:
     atom:    1    charge:   12.8309    magn:    1.8831    constr:    0.0000
     atom:    2    charge:   12.8309    magn:    1.8831    constr:    0.0000
     atom:    3    charge:   12.8309    magn:    1.8831    constr:    0.0000
     atom:    4    charge:   12.7780    magn:    2.6480    constr:    0.0000
     atom:    5    charge:    4.1120    magn:    0.0455    constr:    0.0000

     total cpu time spent up to now is      206.0 secs

     total energy              =   -1345.13833535 Ry
     Harris-Foulkes estimate   =   -1345.13834254 Ry
     estimated scf accuracy    <       0.00002716 Ry

     total magnetization       =     9.00 Bohr mag/cell
     absolute magnetization    =     9.34 Bohr mag/cell

     iteration # 99     ecut=    71.00 Ry     beta=0.70
     Davidson diagonalization with overlap
     ethr =  4.63E-09,  avg # of iterations =  2.1

     negative rho (up, down):  0.000E+00 7.182E-04
 
     Magnetic moment per site:
     atom:    1    charge:   12.8307    magn:    1.8951    constr:    0.0000
     atom:    2    charge:   12.8307    magn:    1.8951    constr:    0.0000
     atom:    3    charge:   12.8307    magn:    1.8951    constr:    0.0000
     atom:    4    charge:   12.7782    magn:    2.6470    constr:    0.0000
     atom:    5    charge:    4.1125    magn:    0.0467    constr:    0.0000

     total cpu time spent up to now is      207.8 secs

     total energy              =   -1345.13830385 Ry
     Harris-Foulkes estimate   =   -1345.13833612 Ry
     estimated scf accuracy    <       0.00003755 Ry

     total magnetization       =     9.01 Bohr mag/cell
     absolute magnetization    =     9.35 Bohr mag/cell

     iteration #100     ecut=    71.00 Ry     beta=0.70
     Davidson diagonalization with overlap
     ethr =  4.63E-09,  avg # of iterations =  3.0

     negative rho (up, down):  0.000E+00 7.107E-04
 
     Magnetic moment per site:
     atom:    1    charge:   12.8308    magn:    1.8870    constr:    0.0000
     atom:    2    charge:   12.8308    magn:    1.8870    constr:    0.0000
     atom:    3    charge:   12.8308    magn:    1.8870    constr:    0.0000
     atom:    4    charge:   12.7780    magn:    2.6476    constr:    0.0000
     atom:    5    charge:    4.1121    magn:    0.0458    constr:    0.0000

     total cpu time spent up to now is      209.8 secs

     total energy              =   -1345.13832658 Ry
     Harris-Foulkes estimate   =   -1345.13830952 Ry
     estimated scf accuracy    <       0.00009309 Ry

     total magnetization       =     9.02 Bohr mag/cell
     absolute magnetization    =     9.36 Bohr mag/cell

     End of self-consistent calculation

     convergence NOT achieved after 100 iterations: stopping

     Writing output data file config.save
 
     init_run     :      1.24s CPU      1.61s WALL (       1 calls)
     electrons    :    201.71s CPU    207.89s WALL (       1 calls)

     Called by init_run:
     wfcinit      :      0.39s CPU      0.39s WALL (       1 calls)
     potinit      :      0.44s CPU      0.46s WALL (       1 calls)

     Called by electrons:
     c_bands      :    125.35s CPU    128.64s WALL (     100 calls)
     sum_band     :     29.75s CPU     30.33s WALL (     100 calls)
     v_of_rho     :      3.09s CPU      3.23s WALL (     101 calls)
     newd         :      4.71s CPU      4.81s WALL (     101 calls)
     mix_rho      :      0.87s CPU      0.89s WALL (     100 calls)

     Called by c_bands:
     init_us_2    :      1.60s CPU      1.63s WALL (    4020 calls)
     cegterg      :    118.24s CPU    121.34s WALL (    2000 calls)

     Called by sum_band:
     sum_band:bec :      0.06s CPU      0.06s WALL (    2000 calls)
     addusdens    :     12.49s CPU     12.56s WALL (     100 calls)

     Called by *egterg:
     h_psi        :     70.61s CPU     72.58s WALL (    6949 calls)
     s_psi        :      2.67s CPU      2.76s WALL (    6949 calls)
     g_psi        :      0.66s CPU      0.68s WALL (    4929 calls)
     cdiaghg      :     22.44s CPU     22.91s WALL (    6929 calls)

     Called by h_psi:
     add_vuspsi   :      2.74s CPU      2.84s WALL (    6949 calls)

     General routines
     calbec       :      5.49s CPU      5.68s WALL (    8949 calls)
     fft          :      1.64s CPU      1.67s WALL (    3125 calls)
     ffts         :      0.08s CPU      0.08s WALL (     402 calls)
     fftw         :     62.46s CPU     63.99s WALL (  509438 calls)
     interpolate  :      0.37s CPU      0.38s WALL (     402 calls)
     davcio       :      0.03s CPU      0.07s WALL (      38 calls)
 
     Parallel routines
     fft_scatter  :     24.28s CPU     25.24s WALL (  512965 calls)

     PAW routines
     PAW_pot      :     37.93s CPU     39.68s WALL (     101 calls)
     PAW_symme    :      0.15s CPU      0.15s WALL (     201 calls)
 
     PWSCF        :  3m23.42s CPU     3m30.22s WALL

 
   This run was terminated on:  21:12:10  26Oct2020            

=------------------------------------------------------------------------------=
   JOB DONE.
=------------------------------------------------------------------------------=
