
     Program PWSCF v.5.2.0 starts on 26Oct2020 at 20:16:15 

     This program is part of the open-source Quantum ESPRESSO suite
     for quantum simulation of materials; please cite
         "P. Giannozzi et al., J. Phys.:Condens. Matter 21 395502 (2009);
          URL http://www.quantum-espresso.org", 
     in publications or presentations arising from this work. More details at
     http://www.quantum-espresso.org/quote

     Parallel version (MPI), running on     6 processors
     R & G space division:  proc/nbgrp/npool/nimage =       6
     Reading input from 9.in

     Current dimensions of program PWSCF are:
     Max number of different atomic species (ntypx) = 10
     Max number of k-points (npk) =  40000
     Max angular momentum in pseudopotentials (lmaxx) =  3

     IMPORTANT: XC functional enforced from input :
     Exchange-correlation      = PBE ( 1  4  3  4 0 0)
     Any further DFT definition will be discarded
     Please, verify this is what you really want

               file Fe_PSEUDO: wavefunction(s)  3P 3D renormalized
               file N_PSEUDO: wavefunction(s)  2S renormalized

     Subspace diagonalization in iterative solution of the eigenvalue problem:
     a serial algorithm will be used

 
     Parallelization info
     --------------------
     sticks:   dense  smooth     PW     G-vecs:    dense   smooth      PW
     Min         316     182     53                10419     4508     722
     Max         318     183     55                10422     4518     723
     Sum        1901    1093    325                62525    27081    4337
 
     Generating pointlists ...
     new r_m :   0.2063 (alat units)  1.4318 (a.u.) for type    1
     new r_m :   0.2063 (alat units)  1.4318 (a.u.) for type    2


     bravais-lattice index     =            0
     lattice parameter (alat)  =       6.9422  a.u.
     unit-cell volume          =     334.5777 (a.u.)^3
     number of atoms/cell      =            5
     number of atomic types    =            2
     number of electrons       =        69.00
     number of Kohn-Sham states=           42
     kinetic-energy cutoff     =      71.0000  Ry
     charge density cutoff     =     496.0000  Ry
     convergence threshold     =      1.0E-08
     mixing beta               =       0.7000
     number of iterations used =            8  plain     mixing
     Exchange-correlation      = PBE ( 1  4  3  4 0 0)

     celldm(1)=   6.942230  celldm(2)=   0.000000  celldm(3)=   0.000000
     celldm(4)=   0.000000  celldm(5)=   0.000000  celldm(6)=   0.000000

     crystal axes: (cart. coord. in units of alat)
               a(1) = (   1.000000   0.000000   0.000000 )  
               a(2) = (   0.000000   1.000000   0.000000 )  
               a(3) = (   0.000000   0.000000   1.000000 )  

     reciprocal axes: (cart. coord. in units 2 pi/alat)
               b(1) = (  1.000000  0.000000  0.000000 )  
               b(2) = (  0.000000  1.000000  0.000000 )  
               b(3) = (  0.000000  0.000000  1.000000 )  


     PseudoPot. # 1 for Fe read from file:
     pseudo/Fe_PSEUDO
     MD5 check sum: e30d5f36a6f0cb983ee41abee56170da
     Pseudo is Projector augmented-wave + core cor, Zval = 16.0
     Generated using "atomic" code by A. Dal Corso  v.6.3
     Shape of augmentation charge: PSQ
     Using radial grid of 1191 points,  6 beta functions with: 
                l(1) =   0
                l(2) =   0
                l(3) =   1
                l(4) =   1
                l(5) =   2
                l(6) =   2
     Q(r) pseudized with 0 coefficients 


     PseudoPot. # 2 for  N read from file:
     pseudo/N_PSEUDO
     MD5 check sum: 14c48229446f9f2d411169a3abcbc3fa
     Pseudo is Projector augmented-wave + core cor, Zval =  5.0
     Generated using "atomic" code by A. Dal Corso  v.6.3
     Shape of augmentation charge: PSQ
     Using radial grid of 1085 points,  4 beta functions with: 
                l(1) =   0
                l(2) =   0
                l(3) =   1
                l(4) =   1
     Q(r) pseudized with 0 coefficients 


     atomic species   valence    mass     pseudopotential
        Fe            16.00    55.84500     Fe( 1.00)
        N              5.00    14.00650      N( 1.00)

     Starting magnetic structure 
     atomic species   magnetization
        Fe           0.500
        N           -0.010

     48 Sym. Ops., with inversion, found



   Cartesian axes

     site n.     atom                  positions (alat units)
         1           Fe  tau(   1) = (   0.0000000   0.5000000   0.5000000  )
         2           Fe  tau(   2) = (   0.5000000   0.5000000   0.0000000  )
         3           Fe  tau(   3) = (   0.5000000   0.0000000   0.5000000  )
         4           Fe  tau(   4) = (   0.0000000   0.0000000   0.0000000  )
         5           N   tau(   5) = (   0.5000000   0.5000000   0.5000000  )

     number of k points=    70  Marzari-Vanderbilt smearing, width (Ry)=  0.0050
                       cart. coord. in units 2pi/alat
        k(    1) = (   0.0000000   0.0000000   0.0000000), wk =   0.0013717
        k(    2) = (   0.0000000   0.0000000   0.1111111), wk =   0.0082305
        k(    3) = (   0.0000000   0.0000000   0.2222222), wk =   0.0082305
        k(    4) = (   0.0000000   0.0000000   0.3333333), wk =   0.0082305
        k(    5) = (   0.0000000   0.0000000   0.4444444), wk =   0.0082305
        k(    6) = (   0.0000000   0.1111111   0.1111111), wk =   0.0164609
        k(    7) = (   0.0000000   0.1111111   0.2222222), wk =   0.0329218
        k(    8) = (   0.0000000   0.1111111   0.3333333), wk =   0.0329218
        k(    9) = (   0.0000000   0.1111111   0.4444444), wk =   0.0329218
        k(   10) = (   0.0000000   0.2222222   0.2222222), wk =   0.0164609
        k(   11) = (   0.0000000   0.2222222   0.3333333), wk =   0.0329218
        k(   12) = (   0.0000000   0.2222222   0.4444444), wk =   0.0329218
        k(   13) = (   0.0000000   0.3333333   0.3333333), wk =   0.0164609
        k(   14) = (   0.0000000   0.3333333   0.4444444), wk =   0.0329218
        k(   15) = (   0.0000000   0.4444444   0.4444444), wk =   0.0164609
        k(   16) = (   0.1111111   0.1111111   0.1111111), wk =   0.0109739
        k(   17) = (   0.1111111   0.1111111   0.2222222), wk =   0.0329218
        k(   18) = (   0.1111111   0.1111111   0.3333333), wk =   0.0329218
        k(   19) = (   0.1111111   0.1111111   0.4444444), wk =   0.0329218
        k(   20) = (   0.1111111   0.2222222   0.2222222), wk =   0.0329218
        k(   21) = (   0.1111111   0.2222222   0.3333333), wk =   0.0658436
        k(   22) = (   0.1111111   0.2222222   0.4444444), wk =   0.0658436
        k(   23) = (   0.1111111   0.3333333   0.3333333), wk =   0.0329218
        k(   24) = (   0.1111111   0.3333333   0.4444444), wk =   0.0658436
        k(   25) = (   0.1111111   0.4444444   0.4444444), wk =   0.0329218
        k(   26) = (   0.2222222   0.2222222   0.2222222), wk =   0.0109739
        k(   27) = (   0.2222222   0.2222222   0.3333333), wk =   0.0329218
        k(   28) = (   0.2222222   0.2222222   0.4444444), wk =   0.0329218
        k(   29) = (   0.2222222   0.3333333   0.3333333), wk =   0.0329218
        k(   30) = (   0.2222222   0.3333333   0.4444444), wk =   0.0658436
        k(   31) = (   0.2222222   0.4444444   0.4444444), wk =   0.0329218
        k(   32) = (   0.3333333   0.3333333   0.3333333), wk =   0.0109739
        k(   33) = (   0.3333333   0.3333333   0.4444444), wk =   0.0329218
        k(   34) = (   0.3333333   0.4444444   0.4444444), wk =   0.0329218
        k(   35) = (   0.4444444   0.4444444   0.4444444), wk =   0.0109739
        k(   36) = (   0.0000000   0.0000000   0.0000000), wk =   0.0013717
        k(   37) = (   0.0000000   0.0000000   0.1111111), wk =   0.0082305
        k(   38) = (   0.0000000   0.0000000   0.2222222), wk =   0.0082305
        k(   39) = (   0.0000000   0.0000000   0.3333333), wk =   0.0082305
        k(   40) = (   0.0000000   0.0000000   0.4444444), wk =   0.0082305
        k(   41) = (   0.0000000   0.1111111   0.1111111), wk =   0.0164609
        k(   42) = (   0.0000000   0.1111111   0.2222222), wk =   0.0329218
        k(   43) = (   0.0000000   0.1111111   0.3333333), wk =   0.0329218
        k(   44) = (   0.0000000   0.1111111   0.4444444), wk =   0.0329218
        k(   45) = (   0.0000000   0.2222222   0.2222222), wk =   0.0164609
        k(   46) = (   0.0000000   0.2222222   0.3333333), wk =   0.0329218
        k(   47) = (   0.0000000   0.2222222   0.4444444), wk =   0.0329218
        k(   48) = (   0.0000000   0.3333333   0.3333333), wk =   0.0164609
        k(   49) = (   0.0000000   0.3333333   0.4444444), wk =   0.0329218
        k(   50) = (   0.0000000   0.4444444   0.4444444), wk =   0.0164609
        k(   51) = (   0.1111111   0.1111111   0.1111111), wk =   0.0109739
        k(   52) = (   0.1111111   0.1111111   0.2222222), wk =   0.0329218
        k(   53) = (   0.1111111   0.1111111   0.3333333), wk =   0.0329218
        k(   54) = (   0.1111111   0.1111111   0.4444444), wk =   0.0329218
        k(   55) = (   0.1111111   0.2222222   0.2222222), wk =   0.0329218
        k(   56) = (   0.1111111   0.2222222   0.3333333), wk =   0.0658436
        k(   57) = (   0.1111111   0.2222222   0.4444444), wk =   0.0658436
        k(   58) = (   0.1111111   0.3333333   0.3333333), wk =   0.0329218
        k(   59) = (   0.1111111   0.3333333   0.4444444), wk =   0.0658436
        k(   60) = (   0.1111111   0.4444444   0.4444444), wk =   0.0329218
        k(   61) = (   0.2222222   0.2222222   0.2222222), wk =   0.0109739
        k(   62) = (   0.2222222   0.2222222   0.3333333), wk =   0.0329218
        k(   63) = (   0.2222222   0.2222222   0.4444444), wk =   0.0329218
        k(   64) = (   0.2222222   0.3333333   0.3333333), wk =   0.0329218
        k(   65) = (   0.2222222   0.3333333   0.4444444), wk =   0.0658436
        k(   66) = (   0.2222222   0.4444444   0.4444444), wk =   0.0329218
        k(   67) = (   0.3333333   0.3333333   0.3333333), wk =   0.0109739
        k(   68) = (   0.3333333   0.3333333   0.4444444), wk =   0.0329218
        k(   69) = (   0.3333333   0.4444444   0.4444444), wk =   0.0329218
        k(   70) = (   0.4444444   0.4444444   0.4444444), wk =   0.0109739

     Dense  grid:    62525 G-vectors     FFT dimensions: (  50,  50,  50)

     Smooth grid:    27081 G-vectors     FFT dimensions: (  40,  40,  40)

     Largest allocated arrays     est. size (Mb)     dimensions
        Kohn-Sham Wavefunctions         0.37 Mb     (     570,   42)
        NL pseudopotentials             0.70 Mb     (     570,   80)
        Each V/rho on FFT grid          0.69 Mb     (   22500,   2)
        Each G-vector array             0.08 Mb     (   10422)
        G-vector shells                 0.00 Mb     (     497)
     Largest temporary arrays     est. size (Mb)     dimensions
        Auxiliary wavefunctions         1.46 Mb     (     570,  168)
        Each subspace H/S matrix        0.43 Mb     (     168,  168)
        Each <psi_i|beta_j> matrix      0.05 Mb     (      80,   42)
        Arrays for rho mixing           2.75 Mb     (   22500,    8)

     Check: negative/imaginary core charge=   -0.000002    0.000000

     Initial potential from superposition of free atoms

     starting charge   68.99837, renormalised to   69.00000
     Starting wfc are   44 randomized atomic wfcs
     Checking if some PAW data can be deallocated... 

     total cpu time spent up to now is        3.0 secs

     per-process dynamical memory:    54.0 Mb

     Self-consistent Calculation

     iteration #  1     ecut=    71.00 Ry     beta=0.70
     Davidson diagonalization with overlap
     ethr =  1.00E-02,  avg # of iterations =  3.0

     negative rho (up, down):  0.000E+00 1.036E-03
 
     Magnetic moment per site:
     atom:    1    charge:   12.7318    magn:    4.0982    constr:    0.0000
     atom:    2    charge:   12.7318    magn:    4.0982    constr:    0.0000
     atom:    3    charge:   12.7318    magn:    4.0982    constr:    0.0000
     atom:    4    charge:   12.6127    magn:    4.1674    constr:    0.0000
     atom:    5    charge:    4.6355    magn:    0.1181    constr:    0.0000

     total cpu time spent up to now is        8.8 secs

     total energy              =   -1344.11582751 Ry
     Harris-Foulkes estimate   =   -1343.41760868 Ry
     estimated scf accuracy    <       2.86739554 Ry

     total magnetization       =    13.87 Bohr mag/cell
     absolute magnetization    =    14.05 Bohr mag/cell

     iteration #  2     ecut=    71.00 Ry     beta=0.70
     Davidson diagonalization with overlap
     ethr =  4.16E-03,  avg # of iterations =  3.3

     negative rho (up, down):  0.000E+00 8.885E-04
 
     Magnetic moment per site:
     atom:    1    charge:   12.7229    magn:    3.8165    constr:    0.0000
     atom:    2    charge:   12.7229    magn:    3.8165    constr:    0.0000
     atom:    3    charge:   12.7229    magn:    3.8165    constr:    0.0000
     atom:    4    charge:   13.0637    magn:    3.5705    constr:    0.0000
     atom:    5    charge:    4.2252    magn:    0.0567    constr:    0.0000

     total cpu time spent up to now is       14.4 secs

     total energy              =   -1343.27421901 Ry
     Harris-Foulkes estimate   =   -1345.71762966 Ry
     estimated scf accuracy    <       8.48610479 Ry

     total magnetization       =     9.38 Bohr mag/cell
     absolute magnetization    =    10.50 Bohr mag/cell

     iteration #  3     ecut=    71.00 Ry     beta=0.70
     Davidson diagonalization with overlap
     ethr =  4.16E-03,  avg # of iterations =  3.5

     negative rho (up, down):  0.000E+00 6.676E-04
 
     Magnetic moment per site:
     atom:    1    charge:   12.8836    magn:    3.4476    constr:    0.0000
     atom:    2    charge:   12.8836    magn:    3.4476    constr:    0.0000
     atom:    3    charge:   12.8836    magn:    3.4476    constr:    0.0000
     atom:    4    charge:   12.8106    magn:    3.0183    constr:    0.0000
     atom:    5    charge:    4.0293    magn:    0.0238    constr:    0.0000

     total cpu time spent up to now is       20.2 secs

     total energy              =   -1343.59311175 Ry
     Harris-Foulkes estimate   =   -1346.16227262 Ry
     estimated scf accuracy    <      25.53491800 Ry

     total magnetization       =     3.80 Bohr mag/cell
     absolute magnetization    =     4.50 Bohr mag/cell

     iteration #  4     ecut=    71.00 Ry     beta=0.70
     Davidson diagonalization with overlap
     ethr =  4.16E-03,  avg # of iterations =  3.2

     negative rho (up, down):  0.000E+00 1.181E-03
 
     Magnetic moment per site:
     atom:    1    charge:   12.7726    magn:    2.2629    constr:    0.0000
     atom:    2    charge:   12.7726    magn:    2.2629    constr:    0.0000
     atom:    3    charge:   12.7726    magn:    2.2629    constr:    0.0000
     atom:    4    charge:   12.7272    magn:    1.8792    constr:    0.0000
     atom:    5    charge:    4.0530    magn:   -0.0486    constr:    0.0000

     total cpu time spent up to now is       25.9 secs

     total energy              =   -1344.99961374 Ry
     Harris-Foulkes estimate   =   -1345.07882752 Ry
     estimated scf accuracy    <       0.55073872 Ry

     total magnetization       =    10.75 Bohr mag/cell
     absolute magnetization    =    11.16 Bohr mag/cell

     iteration #  5     ecut=    71.00 Ry     beta=0.70
     Davidson diagonalization with overlap
     ethr =  7.98E-04,  avg # of iterations =  3.3

     negative rho (up, down):  0.000E+00 9.983E-04
 
     Magnetic moment per site:
     atom:    1    charge:   12.8318    magn:    2.1628    constr:    0.0000
     atom:    2    charge:   12.8318    magn:    2.1628    constr:    0.0000
     atom:    3    charge:   12.8318    magn:    2.1628    constr:    0.0000
     atom:    4    charge:   12.8029    magn:    2.0433    constr:    0.0000
     atom:    5    charge:    4.1096    magn:   -0.0268    constr:    0.0000

     total cpu time spent up to now is       32.0 secs

     total energy              =   -1345.08551858 Ry
     Harris-Foulkes estimate   =   -1345.17328113 Ry
     estimated scf accuracy    <       0.24324174 Ry

     total magnetization       =     9.59 Bohr mag/cell
     absolute magnetization    =     9.95 Bohr mag/cell

     iteration #  6     ecut=    71.00 Ry     beta=0.70
     Davidson diagonalization with overlap
     ethr =  3.53E-04,  avg # of iterations =  3.0

     negative rho (up, down):  0.000E+00 8.885E-04
 
     Magnetic moment per site:
     atom:    1    charge:   12.8256    magn:    2.1142    constr:    0.0000
     atom:    2    charge:   12.8256    magn:    2.1142    constr:    0.0000
     atom:    3    charge:   12.8256    magn:    2.1142    constr:    0.0000
     atom:    4    charge:   12.7916    magn:    2.3708    constr:    0.0000
     atom:    5    charge:    4.1113    magn:    0.0062    constr:    0.0000

     total cpu time spent up to now is       37.5 secs

     total energy              =   -1345.13251547 Ry
     Harris-Foulkes estimate   =   -1345.12827038 Ry
     estimated scf accuracy    <       0.02630802 Ry

     total magnetization       =     9.37 Bohr mag/cell
     absolute magnetization    =     9.71 Bohr mag/cell

     iteration #  7     ecut=    71.00 Ry     beta=0.70
     Davidson diagonalization with overlap
     ethr =  3.81E-05,  avg # of iterations =  1.7

     negative rho (up, down):  0.000E+00 7.729E-04
 
     Magnetic moment per site:
     atom:    1    charge:   12.8264    magn:    1.9534    constr:    0.0000
     atom:    2    charge:   12.8264    magn:    1.9534    constr:    0.0000
     atom:    3    charge:   12.8264    magn:    1.9534    constr:    0.0000
     atom:    4    charge:   12.7714    magn:    2.8072    constr:    0.0000
     atom:    5    charge:    4.1105    magn:    0.0387    constr:    0.0000

     total cpu time spent up to now is       42.0 secs

     total energy              =   -1345.13242134 Ry
     Harris-Foulkes estimate   =   -1345.13427018 Ry
     estimated scf accuracy    <       0.01806636 Ry

     total magnetization       =     9.37 Bohr mag/cell
     absolute magnetization    =     9.71 Bohr mag/cell

     iteration #  8     ecut=    71.00 Ry     beta=0.70
     Davidson diagonalization with overlap
     ethr =  2.62E-05,  avg # of iterations =  2.2

     negative rho (up, down):  0.000E+00 7.342E-04
 
     Magnetic moment per site:
     atom:    1    charge:   12.8295    magn:    1.8568    constr:    0.0000
     atom:    2    charge:   12.8295    magn:    1.8568    constr:    0.0000
     atom:    3    charge:   12.8295    magn:    1.8568    constr:    0.0000
     atom:    4    charge:   12.7738    magn:    2.7249    constr:    0.0000
     atom:    5    charge:    4.1084    magn:    0.0307    constr:    0.0000

     total cpu time spent up to now is       47.2 secs

     total energy              =   -1345.13748239 Ry
     Harris-Foulkes estimate   =   -1345.13650284 Ry
     estimated scf accuracy    <       0.00209415 Ry

     total magnetization       =     8.98 Bohr mag/cell
     absolute magnetization    =     9.33 Bohr mag/cell

     iteration #  9     ecut=    71.00 Ry     beta=0.70
     Davidson diagonalization with overlap
     ethr =  3.03E-06,  avg # of iterations =  2.1

     negative rho (up, down):  0.000E+00 8.537E-04
 
     Magnetic moment per site:
     atom:    1    charge:   12.8272    magn:    1.9976    constr:    0.0000
     atom:    2    charge:   12.8272    magn:    1.9976    constr:    0.0000
     atom:    3    charge:   12.8272    magn:    1.9976    constr:    0.0000
     atom:    4    charge:   12.7728    magn:    2.7578    constr:    0.0000
     atom:    5    charge:    4.1135    magn:    0.0388    constr:    0.0000

     total cpu time spent up to now is       52.1 secs

     total energy              =   -1345.13462914 Ry
     Harris-Foulkes estimate   =   -1345.13833752 Ry
     estimated scf accuracy    <       0.00211163 Ry

     total magnetization       =     8.56 Bohr mag/cell
     absolute magnetization    =     8.94 Bohr mag/cell

     iteration # 10     ecut=    71.00 Ry     beta=0.70
     Davidson diagonalization with overlap
     ethr =  3.03E-06,  avg # of iterations =  2.0

     negative rho (up, down):  0.000E+00 9.429E-04
 
     Magnetic moment per site:
     atom:    1    charge:   12.8257    magn:    2.0882    constr:    0.0000
     atom:    2    charge:   12.8257    magn:    2.0882    constr:    0.0000
     atom:    3    charge:   12.8257    magn:    2.0882    constr:    0.0000
     atom:    4    charge:   12.7739    magn:    2.7410    constr:    0.0000
     atom:    5    charge:    4.1172    magn:    0.0458    constr:    0.0000

     total cpu time spent up to now is       56.6 secs

     total energy              =   -1345.13440052 Ry
     Harris-Foulkes estimate   =   -1345.13625310 Ry
     estimated scf accuracy    <       0.00227746 Ry

     total magnetization       =     9.10 Bohr mag/cell
     absolute magnetization    =     9.44 Bohr mag/cell

     iteration # 11     ecut=    71.00 Ry     beta=0.70
     Davidson diagonalization with overlap
     ethr =  3.03E-06,  avg # of iterations =  1.9

     negative rho (up, down):  0.000E+00 5.782E-04
 
     Magnetic moment per site:
     atom:    1    charge:   12.8327    magn:    1.7136    constr:    0.0000
     atom:    2    charge:   12.8327    magn:    1.7136    constr:    0.0000
     atom:    3    charge:   12.8327    magn:    1.7136    constr:    0.0000
     atom:    4    charge:   12.7738    magn:    2.6953    constr:    0.0000
     atom:    5    charge:    4.1033    magn:    0.0132    constr:    0.0000

     total cpu time spent up to now is       61.2 secs

     total energy              =   -1345.13045620 Ry
     Harris-Foulkes estimate   =   -1345.13496385 Ry
     estimated scf accuracy    <       0.00300685 Ry

     total magnetization       =     9.35 Bohr mag/cell
     absolute magnetization    =     9.68 Bohr mag/cell

     iteration # 12     ecut=    71.00 Ry     beta=0.70
     Davidson diagonalization with overlap
     ethr =  3.03E-06,  avg # of iterations =  3.1

     negative rho (up, down):  0.000E+00 3.201E-04
 
     Magnetic moment per site:
     atom:    1    charge:   12.8391    magn:    1.3562    constr:    0.0000
     atom:    2    charge:   12.8391    magn:    1.3562    constr:    0.0000
     atom:    3    charge:   12.8391    magn:    1.3562    constr:    0.0000
     atom:    4    charge:   12.7732    magn:    2.6498    constr:    0.0000
     atom:    5    charge:    4.0891    magn:   -0.0193    constr:    0.0000

     total cpu time spent up to now is       67.4 secs

     total energy              =   -1345.13415582 Ry
     Harris-Foulkes estimate   =   -1345.14052632 Ry
     estimated scf accuracy    <       0.00110505 Ry

     total magnetization       =     8.18 Bohr mag/cell
     absolute magnetization    =     8.56 Bohr mag/cell

     iteration # 13     ecut=    71.00 Ry     beta=0.70
     Davidson diagonalization with overlap
     ethr =  1.60E-06,  avg # of iterations =  3.3

     negative rho (up, down):  0.000E+00 3.177E-04
 
     Magnetic moment per site:
     atom:    1    charge:   12.8410    magn:    1.2753    constr:    0.0000
     atom:    2    charge:   12.8410    magn:    1.2753    constr:    0.0000
     atom:    3    charge:   12.8410    magn:    1.2753    constr:    0.0000
     atom:    4    charge:   12.7733    magn:    2.6453    constr:    0.0000
     atom:    5    charge:    4.0855    magn:   -0.0276    constr:    0.0000

     total cpu time spent up to now is       74.5 secs

     total energy              =   -1345.14046003 Ry
     Harris-Foulkes estimate   =   -1345.14131641 Ry
     estimated scf accuracy    <       0.00043118 Ry

     total magnetization       =     7.32 Bohr mag/cell
     absolute magnetization    =     7.69 Bohr mag/cell

     iteration # 14     ecut=    71.00 Ry     beta=0.70
     Davidson diagonalization with overlap
     ethr =  6.25E-07,  avg # of iterations =  2.3

     negative rho (up, down):  0.000E+00 3.201E-04
 
     Magnetic moment per site:
     atom:    1    charge:   12.8396    magn:    1.3542    constr:    0.0000
     atom:    2    charge:   12.8396    magn:    1.3542    constr:    0.0000
     atom:    3    charge:   12.8396    magn:    1.3542    constr:    0.0000
     atom:    4    charge:   12.7731    magn:    2.6512    constr:    0.0000
     atom:    5    charge:    4.0880    magn:   -0.0205    constr:    0.0000

     total cpu time spent up to now is       79.6 secs

     total energy              =   -1345.14094837 Ry
     Harris-Foulkes estimate   =   -1345.14086278 Ry
     estimated scf accuracy    <       0.00089174 Ry

     total magnetization       =     7.12 Bohr mag/cell
     absolute magnetization    =     7.49 Bohr mag/cell

     iteration # 15     ecut=    71.00 Ry     beta=0.70
     Davidson diagonalization with overlap
     ethr =  6.25E-07,  avg # of iterations =  2.2

     negative rho (up, down):  0.000E+00 3.206E-04
 
     Magnetic moment per site:
     atom:    1    charge:   12.8387    magn:    1.3968    constr:    0.0000
     atom:    2    charge:   12.8387    magn:    1.3968    constr:    0.0000
     atom:    3    charge:   12.8387    magn:    1.3968    constr:    0.0000
     atom:    4    charge:   12.7732    magn:    2.6579    constr:    0.0000
     atom:    5    charge:    4.0894    magn:   -0.0184    constr:    0.0000

     total cpu time spent up to now is       84.5 secs

     total energy              =   -1345.14140614 Ry
     Harris-Foulkes estimate   =   -1345.14134209 Ry
     estimated scf accuracy    <       0.00042616 Ry

     total magnetization       =     7.31 Bohr mag/cell
     absolute magnetization    =     7.69 Bohr mag/cell

     iteration # 16     ecut=    71.00 Ry     beta=0.70
     Davidson diagonalization with overlap
     ethr =  6.18E-07,  avg # of iterations =  1.3

     negative rho (up, down):  0.000E+00 3.232E-04
 
     Magnetic moment per site:
     atom:    1    charge:   12.8368    magn:    1.4726    constr:    0.0000
     atom:    2    charge:   12.8368    magn:    1.4726    constr:    0.0000
     atom:    3    charge:   12.8368    magn:    1.4726    constr:    0.0000
     atom:    4    charge:   12.7726    magn:    2.6641    constr:    0.0000
     atom:    5    charge:    4.0924    magn:   -0.0104    constr:    0.0000

     total cpu time spent up to now is       88.9 secs

     total energy              =   -1345.14120337 Ry
     Harris-Foulkes estimate   =   -1345.14152876 Ry
     estimated scf accuracy    <       0.00015019 Ry

     total magnetization       =     7.43 Bohr mag/cell
     absolute magnetization    =     7.79 Bohr mag/cell

     iteration # 17     ecut=    71.00 Ry     beta=0.70
     Davidson diagonalization with overlap
     ethr =  2.18E-07,  avg # of iterations =  2.9

     negative rho (up, down):  0.000E+00 3.721E-04
 
     Magnetic moment per site:
     atom:    1    charge:   12.8353    magn:    1.5265    constr:    0.0000
     atom:    2    charge:   12.8353    magn:    1.5265    constr:    0.0000
     atom:    3    charge:   12.8353    magn:    1.5265    constr:    0.0000
     atom:    4    charge:   12.7725    magn:    2.6611    constr:    0.0000
     atom:    5    charge:    4.0950    magn:   -0.0035    constr:    0.0000

     total cpu time spent up to now is       95.0 secs

     total energy              =   -1345.14137281 Ry
     Harris-Foulkes estimate   =   -1345.14160240 Ry
     estimated scf accuracy    <       0.00004947 Ry

     total magnetization       =     7.64 Bohr mag/cell
     absolute magnetization    =     7.99 Bohr mag/cell

     iteration # 18     ecut=    71.00 Ry     beta=0.70
     Davidson diagonalization with overlap
     ethr =  7.17E-08,  avg # of iterations =  3.0

     negative rho (up, down):  0.000E+00 3.748E-04
 
     Magnetic moment per site:
     atom:    1    charge:   12.8351    magn:    1.5304    constr:    0.0000
     atom:    2    charge:   12.8351    magn:    1.5304    constr:    0.0000
     atom:    3    charge:   12.8351    magn:    1.5304    constr:    0.0000
     atom:    4    charge:   12.7724    magn:    2.6605    constr:    0.0000
     atom:    5    charge:    4.0953    magn:   -0.0025    constr:    0.0000

     total cpu time spent up to now is      100.9 secs

     total energy              =   -1345.14156034 Ry
     Harris-Foulkes estimate   =   -1345.14156068 Ry
     estimated scf accuracy    <       0.00006626 Ry

     total magnetization       =     7.78 Bohr mag/cell
     absolute magnetization    =     8.13 Bohr mag/cell

     iteration # 19     ecut=    71.00 Ry     beta=0.70
     Davidson diagonalization with overlap
     ethr =  7.17E-08,  avg # of iterations =  1.0

     negative rho (up, down):  0.000E+00 3.617E-04
 
     Magnetic moment per site:
     atom:    1    charge:   12.8349    magn:    1.5189    constr:    0.0000
     atom:    2    charge:   12.8349    magn:    1.5189    constr:    0.0000
     atom:    3    charge:   12.8349    magn:    1.5189    constr:    0.0000
     atom:    4    charge:   12.7723    magn:    2.6543    constr:    0.0000
     atom:    5    charge:    4.0955    magn:   -0.0012    constr:    0.0000

     total cpu time spent up to now is      105.2 secs

     total energy              =   -1345.14157964 Ry
     Harris-Foulkes estimate   =   -1345.14156211 Ry
     estimated scf accuracy    <       0.00005476 Ry

     total magnetization       =     7.79 Bohr mag/cell
     absolute magnetization    =     8.14 Bohr mag/cell

     iteration # 20     ecut=    71.00 Ry     beta=0.70
     Davidson diagonalization with overlap
     ethr =  7.17E-08,  avg # of iterations =  2.2

     negative rho (up, down):  0.000E+00 3.366E-04
 
     Magnetic moment per site:
     atom:    1    charge:   12.8353    magn:    1.4938    constr:    0.0000
     atom:    2    charge:   12.8353    magn:    1.4938    constr:    0.0000
     atom:    3    charge:   12.8353    magn:    1.4938    constr:    0.0000
     atom:    4    charge:   12.7724    magn:    2.6507    constr:    0.0000
     atom:    5    charge:    4.0949    magn:   -0.0024    constr:    0.0000

     total cpu time spent up to now is      109.9 secs

     total energy              =   -1345.14157349 Ry
     Harris-Foulkes estimate   =   -1345.14159810 Ry
     estimated scf accuracy    <       0.00001753 Ry

     total magnetization       =     7.76 Bohr mag/cell
     absolute magnetization    =     8.11 Bohr mag/cell

     iteration # 21     ecut=    71.00 Ry     beta=0.70
     Davidson diagonalization with overlap
     ethr =  2.54E-08,  avg # of iterations =  3.0

     negative rho (up, down):  0.000E+00 3.326E-04
 
     Magnetic moment per site:
     atom:    1    charge:   12.8355    magn:    1.4891    constr:    0.0000
     atom:    2    charge:   12.8355    magn:    1.4891    constr:    0.0000
     atom:    3    charge:   12.8355    magn:    1.4891    constr:    0.0000
     atom:    4    charge:   12.7725    magn:    2.6518    constr:    0.0000
     atom:    5    charge:    4.0945    magn:   -0.0033    constr:    0.0000

     total cpu time spent up to now is      116.3 secs

     total energy              =   -1345.14161540 Ry
     Harris-Foulkes estimate   =   -1345.14161556 Ry
     estimated scf accuracy    <       0.00000814 Ry

     total magnetization       =     7.70 Bohr mag/cell
     absolute magnetization    =     8.04 Bohr mag/cell

     iteration # 22     ecut=    71.00 Ry     beta=0.70
     Davidson diagonalization with overlap
     ethr =  1.18E-08,  avg # of iterations =  1.6

     negative rho (up, down):  0.000E+00 3.291E-04
 
     Magnetic moment per site:
     atom:    1    charge:   12.8358    magn:    1.4849    constr:    0.0000
     atom:    2    charge:   12.8358    magn:    1.4849    constr:    0.0000
     atom:    3    charge:   12.8358    magn:    1.4849    constr:    0.0000
     atom:    4    charge:   12.7725    magn:    2.6534    constr:    0.0000
     atom:    5    charge:    4.0941    magn:   -0.0038    constr:    0.0000

     total cpu time spent up to now is      120.9 secs

     total energy              =   -1345.14161641 Ry
     Harris-Foulkes estimate   =   -1345.14161743 Ry
     estimated scf accuracy    <       0.00000353 Ry

     total magnetization       =     7.68 Bohr mag/cell
     absolute magnetization    =     8.03 Bohr mag/cell

     iteration # 23     ecut=    71.00 Ry     beta=0.70
     Davidson diagonalization with overlap
     ethr =  5.12E-09,  avg # of iterations =  2.5

     negative rho (up, down):  0.000E+00 3.278E-04
 
     Magnetic moment per site:
     atom:    1    charge:   12.8358    magn:    1.4836    constr:    0.0000
     atom:    2    charge:   12.8358    magn:    1.4836    constr:    0.0000
     atom:    3    charge:   12.8358    magn:    1.4836    constr:    0.0000
     atom:    4    charge:   12.7724    magn:    2.6535    constr:    0.0000
     atom:    5    charge:    4.0941    magn:   -0.0039    constr:    0.0000

     total cpu time spent up to now is      126.0 secs

     total energy              =   -1345.14161824 Ry
     Harris-Foulkes estimate   =   -1345.14161830 Ry
     estimated scf accuracy    <       0.00000015 Ry

     total magnetization       =     7.67 Bohr mag/cell
     absolute magnetization    =     8.02 Bohr mag/cell

     iteration # 24     ecut=    71.00 Ry     beta=0.70
     Davidson diagonalization with overlap
     ethr =  2.15E-10,  avg # of iterations =  3.0

     negative rho (up, down):  0.000E+00 3.268E-04
 
     Magnetic moment per site:
     atom:    1    charge:   12.8359    magn:    1.4828    constr:    0.0000
     atom:    2    charge:   12.8359    magn:    1.4828    constr:    0.0000
     atom:    3    charge:   12.8359    magn:    1.4828    constr:    0.0000
     atom:    4    charge:   12.7724    magn:    2.6537    constr:    0.0000
     atom:    5    charge:    4.0940    magn:   -0.0040    constr:    0.0000

     total cpu time spent up to now is      131.6 secs

     total energy              =   -1345.14161836 Ry
     Harris-Foulkes estimate   =   -1345.14161838 Ry
     estimated scf accuracy    <       0.00000002 Ry

     total magnetization       =     7.67 Bohr mag/cell
     absolute magnetization    =     8.02 Bohr mag/cell

     iteration # 25     ecut=    71.00 Ry     beta=0.70
     Davidson diagonalization with overlap
     ethr =  3.25E-11,  avg # of iterations =  3.0

     negative rho (up, down):  0.000E+00 3.267E-04
 
     Magnetic moment per site:
     atom:    1    charge:   12.8358    magn:    1.4827    constr:    0.0000
     atom:    2    charge:   12.8358    magn:    1.4827    constr:    0.0000
     atom:    3    charge:   12.8358    magn:    1.4827    constr:    0.0000
     atom:    4    charge:   12.7724    magn:    2.6537    constr:    0.0000
     atom:    5    charge:    4.0940    magn:   -0.0041    constr:    0.0000

     total cpu time spent up to now is      137.5 secs

     End of self-consistent calculation

 ------ SPIN UP ------------


          k = 0.0000 0.0000 0.0000 (  3407 PWs)   bands (ev):

   -69.9463 -69.2660 -69.2114 -69.2114 -36.0028 -36.0028 -36.0028 -35.6179
   -35.6179 -35.6179 -35.1604 -35.1604 -35.1604 -35.1544 -35.1544 -35.1544
     0.3455  11.4293  13.3305  13.3305  13.3305  13.8428  13.8428  14.1089
    14.1089  14.1089  16.0959  16.0959  16.0959  17.2026  17.2026  17.8506
    17.8506  18.4050  18.4050  18.4050  18.4712  18.4712  18.4712  18.4734
    21.8909  23.7560

          k = 0.0000 0.0000 0.1111 (  3367 PWs)   bands (ev):

   -69.9461 -69.2645 -69.2127 -69.2112 -36.0016 -36.0016 -36.0008 -35.6165
   -35.6165 -35.6149 -35.1612 -35.1612 -35.1599 -35.1589 -35.1554 -35.1554
     0.4152  11.4866  12.9279  13.1111  13.1111  13.9222  13.9340  14.1613
    14.3476  14.3476  16.0313  16.1499  16.1499  17.2258  17.2615  17.8195
    17.8749  18.3198  18.3198  18.4054  18.4055  18.4055  18.4127  18.4703
    21.9670  23.2374

          k = 0.0000 0.0000 0.2222 (  3395 PWs)   bands (ev):

   -69.9459 -69.2606 -69.2170 -69.2113 -35.9993 -35.9993 -35.9980 -35.6135
   -35.6135 -35.6097 -35.1713 -35.1641 -35.1641 -35.1614 -35.1584 -35.1584
     0.6001  11.3384  12.5057  12.7682  12.7682  14.0843  14.1386  14.3130
    14.7542  14.7542  15.8480  16.2757  16.2757  17.1994  17.2901  17.7295
    17.7726  17.9593  17.9593  18.2456  18.4057  18.4078  18.4078  18.4675
    22.1805  22.5186

          k = 0.0000 0.0000 0.3333 (  3382 PWs)   bands (ev):

   -69.9456 -69.2549 -69.2229 -69.2113 -35.9963 -35.9963 -35.9941 -35.6100
   -35.6100 -35.6022 -35.1861 -35.1678 -35.1678 -35.1623 -35.1608 -35.1608
     0.8280  10.6704  12.4983  12.4983  12.8478  14.2008  14.4207  14.5465
    15.1461  15.1461  15.5793  16.3683  16.3683  16.9882  17.3252  17.3664
    17.5866  17.5866  17.6178  18.0234  18.4064  18.4200  18.4200  18.4649
    22.0471  22.5739

          k = 0.0000 0.0000 0.4444 (  3402 PWs)   bands (ev):

   -69.9455 -69.2495 -69.2286 -69.2114 -35.9947 -35.9947 -35.9917 -35.6079
   -35.6079 -35.5971 -35.1959 -35.1707 -35.1707 -35.1633 -35.1626 -35.1626
     0.9887  10.1837  12.3540  12.3540  13.4028  14.1274  14.6350  14.8117
    15.2903  15.4386  15.4386  16.3364  16.3364  16.7358  16.9485  17.3511
    17.3799  17.3799  17.6453  17.8101  18.4064  18.4345  18.4345  18.4630
    21.9140  22.7917

          k = 0.0000 0.1111 0.1111 (  3373 PWs)   bands (ev):

   -69.9461 -69.2632 -69.2134 -69.2120 -36.0019 -36.0006 -35.9989 -35.6275
   -35.6151 -35.6010 -35.1718 -35.1620 -35.1619 -35.1585 -35.1568 -35.1501
     0.4849  11.5404  12.6992  12.8579  12.9547  13.9995  14.0073  14.2163
    14.4904  14.5169  16.0072  16.1665  16.1963  17.2532  17.2772  17.7310
    17.7886  18.2317  18.2692  18.3253  18.3308  18.4160  18.4861  18.5490
    22.0274  23.4395

          k = 0.0000 0.1111 0.2222 (  3375 PWs)   bands (ev):

   -69.9458 -69.2592 -69.2172 -69.2124 -36.0002 -35.9982 -35.9959 -35.6351
   -35.6120 -35.5853 -35.1868 -35.1669 -35.1648 -35.1597 -35.1597 -35.1456
     0.6702  11.3596  12.2615  12.6641  12.6780  14.1605  14.2100  14.3663
    14.8176  14.8622  15.8453  16.2852  16.2929  17.1649  17.3282  17.4427
    17.5893  17.9166  18.1454  18.2043  18.2489  18.3896  18.5648  18.6883
    22.2055  22.6721

          k = 0.0000 0.1111 0.3333 (  3383 PWs)   bands (ev):

   -69.9456 -69.2537 -69.2231 -69.2124 -35.9976 -35.9957 -35.9932 -35.6389
   -35.6086 -35.5714 -35.2021 -35.1719 -35.1687 -35.1625 -35.1618 -35.1434
     0.8985  10.6622  12.1394  12.4171  12.9477  14.2859  14.4893  14.5952
    15.1785  15.2181  15.5840  16.2954  16.3972  16.9341  17.1024  17.2708
    17.4951  17.5625  17.8621  18.0790  18.1861  18.3830  18.6359  18.6812
    22.2644  22.4529

          k = 0.0000 0.1111 0.4444 (  3393 PWs)   bands (ev):

   -69.9454 -69.2483 -69.2286 -69.2125 -35.9954 -35.9939 -35.9923 -35.6403
   -35.6063 -35.5632 -35.2117 -35.1753 -35.1714 -35.1640 -35.1634 -35.1427
     1.0597  10.1722  12.0387  12.2817  13.4714  14.2220  14.7044  14.8617
    15.2942  15.4627  15.4853  16.1408  16.3944  16.6671  16.8688  17.2606
    17.3611  17.4706  17.7136  17.9049  18.1495  18.3808  18.6587  18.6813
    22.1460  22.6148

          k = 0.0000 0.2222 0.2222 (  3389 PWs)   bands (ev):

   -69.9456 -69.2556 -69.2190 -69.2145 -36.0007 -35.9961 -35.9939 -35.6539
   -35.6087 -35.5600 -35.2083 -35.1696 -35.1674 -35.1630 -35.1616 -35.1321
     0.8564  11.2954  11.5685  12.4420  12.7913  14.3610  14.3870  14.5086
    15.0176  15.1137  15.7637  16.2786  16.3669  17.0276  17.0325  17.3152
    17.4635  17.7473  18.0403  18.0953  18.2636  18.3399  18.7145  18.9998
    22.1184  23.0011

          k = 0.0000 0.2222 0.3333 (  3377 PWs)   bands (ev):

   -69.9454 -69.2503 -69.2236 -69.2153 -35.9992 -35.9936 -35.9930 -35.6660
   -35.6046 -35.5393 -35.2260 -35.1723 -35.1706 -35.1665 -35.1639 -35.1231
     1.0863  10.6294  11.3688  12.2345  13.1821  14.5197  14.6647  14.7199
    15.2825  15.3943  15.5620  16.0698  16.4997  16.7625  16.8137  17.1068
    17.4803  17.6409  17.8087  17.9645  18.2026  18.3574  18.8414  19.0347
    21.9483  22.8263

          k = 0.0000 0.2222 0.4444 (  3379 PWs)   bands (ev):

   -69.9452 -69.2451 -69.2287 -69.2156 -35.9969 -35.9940 -35.9920 -35.6720
   -35.6020 -35.5277 -35.2364 -35.1742 -35.1732 -35.1683 -35.1655 -35.1187
     1.2490  10.1379  11.3043  12.1159  13.6819  14.4720  14.8944  14.9717
    15.3031  15.4997  15.6037  15.8259  16.5563  16.5572  16.6165  17.1013
    17.3032  17.5343  17.8812  17.8852  18.1833  18.2170  18.9178  18.9680
    21.9157  22.7485

          k = 0.0000 0.3333 0.3333 (  3387 PWs)   bands (ev):

   -69.9452 -69.2453 -69.2252 -69.2189 -35.9997 -35.9944 -35.9916 -35.6856
   -35.6003 -35.5142 -35.2457 -35.1731 -35.1723 -35.1712 -35.1663 -35.1083
     1.3187  10.5592  10.5971  12.0551  13.5760  14.8419  14.8465  14.8919
    15.4174  15.4641  15.5991  15.7440  16.5603  16.6532  16.6621  16.9033
    17.3327  17.6150  17.7644  17.9107  18.0490  18.5532  19.0092  19.1800
    21.2692  23.3581

          k = 0.0000 0.3333 0.4444 (  3381 PWs)   bands (ev):

   -69.9451 -69.2402 -69.2288 -69.2204 -35.9987 -35.9965 -35.9899 -35.6955
   -35.5971 -35.5001 -35.2565 -35.1754 -35.1734 -35.1723 -35.1681 -35.1006
     1.4837  10.0912  10.5364  11.9497  14.0243  14.8021  15.0887  15.1317
    15.2990  15.5138  15.5617  15.7507  16.4068  16.4788  16.7820  16.8362
    17.2081  17.4056  17.6270  17.9796  18.1789  18.5865  19.1077  19.1353
    20.9115  23.4513

          k = 0.0000 0.4444 0.4444 (  3376 PWs)   bands (ev):

   -69.9450 -69.2347 -69.2292 -69.2255 -35.9993 -35.9984 -35.9886 -35.7078
   -35.5938 -35.4849 -35.2673 -35.1768 -35.1766 -35.1708 -35.1700 -35.0910
     1.6505  10.0571  10.0576  11.8511  14.3701  15.0277  15.1896  15.2572
    15.2627  15.4123  15.5785  15.8636  16.3191  16.4008  16.5814  16.9914
    17.1184  17.2407  17.4155  17.8632  18.3890  18.9499  19.1809  19.2175
    20.1347  24.0006

          k = 0.1111 0.1111 0.1111 (  3380 PWs)   bands (ev):

   -69.9460 -69.2619 -69.2134 -69.2134 -36.0012 -36.0012 -35.9969 -35.6397
   -35.6000 -35.6000 -35.1751 -35.1708 -35.1708 -35.1515 -35.1506 -35.1506
     0.5548  11.5903  12.5645  12.5645  12.8370  14.0754  14.0754  14.3933
    14.3933  14.7375  15.9922  16.2059  16.2059  17.2714  17.2714  17.6694
    17.6694  17.9961  18.1301  18.3501  18.3501  18.4267  18.6470  18.6470
    22.0775  23.5641

          k = 0.1111 0.1111 0.2222 (  3381 PWs)   bands (ev):

   -69.9457 -69.2580 -69.2174 -69.2135 -36.0001 -35.9995 -35.9938 -35.6518
   -35.5971 -35.5799 -35.1912 -35.1814 -35.1726 -35.1524 -35.1475 -35.1450
     0.7404  11.3717  12.1442  12.2989  12.7605  14.2359  14.2809  14.4663
    14.7656  15.0167  15.8480  16.2884  16.2992  17.1811  17.2991  17.3888
    17.4127  17.7684  17.9333  18.2237  18.3511  18.3633  18.8076  18.8385
    22.2236  22.8368

          k = 0.1111 0.1111 0.3333 (  3387 PWs)   bands (ev):

   -69.9455 -69.2526 -69.2232 -69.2135 -35.9976 -35.9976 -35.9918 -35.6595
   -35.5939 -35.5625 -35.2074 -35.1900 -35.1738 -35.1541 -35.1482 -35.1409
     0.9693  10.6470  12.0651  12.0779  13.0401  14.3671  14.5583  14.6687
    15.1746  15.2841  15.5944  16.2818  16.3480  16.9213  17.0758  17.1167
    17.4361  17.6109  17.7102  18.0955  18.2570  18.3397  18.6863  18.9976
    22.4214  22.4461

          k = 0.1111 0.1111 0.4444 (  3390 PWs)   bands (ev):

   -69.9453 -69.2473 -69.2286 -69.2135 -35.9962 -35.9943 -35.9921 -35.6628
   -35.5917 -35.5525 -35.2173 -35.1951 -35.1746 -35.1553 -35.1497 -35.1391
     1.1310  10.1552  11.9352  12.0088  13.5385  14.3101  14.7745  14.9271
    15.3045  15.4588  15.5346  16.0790  16.2818  16.6302  16.9720  17.1021
    17.3395  17.5041  17.7148  17.9357  18.1910  18.3294  18.5288  19.0888
    22.3398  22.5648

          k = 0.1111 0.2222 0.2222 (  3383 PWs)   bands (ev):

   -69.9456 -69.2545 -69.2190 -69.2157 -36.0006 -35.9986 -35.9914 -35.6721
   -35.5881 -35.5591 -35.2093 -35.1865 -35.1828 -35.1482 -35.1469 -35.1323
     0.9271  11.2978  11.4901  12.0709  12.8974  14.4316  14.4599  14.6348
    14.9425  15.2123  15.7739  16.2735  16.3442  17.0365  17.0970  17.2189
    17.4009  17.5489  17.7282  18.2540  18.2557  18.3284  19.0830  19.1159
    22.1921  23.1088

          k = 0.1111 0.2222 0.3333 (  3374 PWs)   bands (ev):

   -69.9453 -69.2493 -69.2236 -69.2163 -35.9995 -35.9971 -35.9906 -35.6861
   -35.5836 -35.5378 -35.2263 -35.1950 -35.1850 -35.1488 -35.1456 -35.1231
     1.1579  10.5991  11.3124  11.9159  13.2676  14.5810  14.7316  14.8372
    15.2674  15.3804  15.5872  16.1060  16.3763  16.7698  16.9175  17.0363
    17.4470  17.4835  17.6201  18.1583  18.2040  18.2601  19.0020  19.3387
    22.0596  22.8889

          k = 0.1111 0.2222 0.4444 (  3391 PWs)   bands (ev):

   -69.9452 -69.2443 -69.2287 -69.2165 -35.9981 -35.9960 -35.9916 -35.6935
   -35.5812 -35.5255 -35.2364 -35.2008 -35.1857 -35.1497 -35.1458 -35.1186
     1.3213  10.1084  11.2423  11.8229  13.7378  14.5321  14.9631  15.0746
    15.3070  15.4823  15.6074  15.8687  16.3032  16.5478  16.8817  16.9721
    17.3079  17.4529  17.8018  18.0566  18.1065  18.2388  18.7480  19.4798
    22.0181  22.8384

          k = 0.1111 0.3333 0.3333 (  3376 PWs)   bands (ev):

   -69.9451 -69.2446 -69.2252 -69.2196 -36.0003 -35.9972 -35.9908 -35.7062
   -35.5783 -35.5137 -35.2445 -35.1965 -35.1936 -35.1471 -35.1455 -35.1083
     1.3915  10.5253  10.5405  11.7581  13.6380  14.8260  14.9072  15.0722
    15.3335  15.4755  15.5731  15.9088  16.3714  16.6409  16.7572  16.9633
    17.3324  17.3410  17.8006  18.0179  18.1145  18.3453  19.2288  19.4727
    21.3648  23.2591

          k = 0.1111 0.3333 0.4444 (  3383 PWs)   bands (ev):

   -69.9451 -69.2397 -69.2288 -69.2210 -35.9998 -35.9981 -35.9912 -35.7170
   -35.5753 -35.4997 -35.2548 -35.2008 -35.1950 -35.1467 -35.1456 -35.1006
     1.5575  10.0500  10.4845  11.6637  14.0431  14.7980  15.0945  15.2899
    15.2980  15.5128  15.5658  15.9217  16.2946  16.4507  16.7327  16.9256
    17.2081  17.3155  17.8630  17.9817  18.0359  18.4945  19.0223  19.6637
    20.9575  23.3850

          k = 0.1111 0.4444 0.4444 (  3377 PWs)   bands (ev):

   -69.9449 -69.2344 -69.2293 -69.2258 -36.0005 -35.9998 -35.9908 -35.7296
   -35.5720 -35.4849 -35.2650 -35.2006 -35.2003 -35.1457 -35.1454 -35.0910
     1.7257  10.0087  10.0107  11.5689  14.3253  14.9846  15.0487  15.2078
    15.5494  15.5555  15.6334  16.0578  16.2609  16.3668  16.5088  16.9293
    17.1791  17.2263  17.6809  17.9401  18.0907  18.8834  19.1760  19.7043
    20.1238  23.7388

          k = 0.2222 0.2222 0.2222 (  3386 PWs)   bands (ev):

   -69.9454 -69.2513 -69.2190 -69.2190 -36.0007 -36.0007 -35.9897 -35.6978
   -35.5568 -35.5568 -35.2167 -35.1997 -35.1997 -35.1350 -35.1350 -35.1305
     1.1155  11.2717  11.3123  11.3123  13.1152  14.6259  14.6259  14.9454
    14.9454  15.3077  15.7349  16.2835  16.2835  16.9737  16.9737  17.2876
    17.2876  17.2967  17.4330  18.2343  18.2343  18.3885  19.4197  19.4197
    22.2864  23.0642

          k = 0.2222 0.2222 0.3333 (  3386 PWs)   bands (ev):

   -69.9452 -69.2465 -69.2239 -69.2189 -36.0006 -36.0005 -35.9904 -35.7169
   -35.5541 -35.5309 -35.2307 -35.2125 -35.2023 -35.1349 -35.1271 -35.1212
     1.3489  10.5179  11.1365  11.2366  13.4808  14.7373  14.8956  15.1040
    15.2951  15.2993  15.6720  16.1521  16.2384  16.7286  16.7907  17.1865
    17.1901  17.3820  17.5260  18.1675  18.2254  18.3231  19.2466  19.7687
    22.2515  22.6960

          k = 0.2222 0.2222 0.4444 (  3373 PWs)   bands (ev):

   -69.9451 -69.2417 -69.2287 -69.2189 -36.0004 -35.9988 -35.9923 -35.7267
   -35.5522 -35.5162 -35.2396 -35.2195 -35.2024 -35.1353 -35.1237 -35.1157
     1.5146  10.0337  11.0330  11.1948  13.8869  14.6677  15.1511  15.1515
    15.4068  15.4958  15.6150  15.9911  16.1882  16.5017  16.7760  17.0118
    17.1514  17.5648  17.7289  18.1028  18.2034  18.2479  18.8158  20.0187
    22.2632  22.3785

          k = 0.2222 0.3333 0.3333 (  3377 PWs)   bands (ev):

   -69.9451 -69.2424 -69.2252 -69.2218 -36.0022 -36.0014 -35.9921 -35.7406
   -35.5415 -35.5124 -35.2425 -35.2177 -35.2143 -35.1261 -35.1244 -35.1084
     1.5863  10.4060  10.4383  11.0634  13.7854  14.8962  15.0006  15.1573
    15.4073  15.4606  15.8046  16.1068  16.2178  16.6183  16.6385  16.9672
    17.3092  17.3536  17.6514  18.1589  18.2383  18.2888  19.4074  19.9228
    21.6342  22.6919

          k = 0.2222 0.3333 0.4444 (  3377 PWs)   bands (ev):

   -69.9450 -69.2379 -69.2288 -69.2226 -36.0027 -36.0016 -35.9945 -35.7534
   -35.5382 -35.4982 -35.2509 -35.2236 -35.2156 -35.1255 -35.1205 -35.1006
     1.7555   9.9491  10.3591  10.9841  14.0746  14.8079  15.0307  15.2270
    15.4937  15.7182  15.8783  16.1663  16.1926  16.4275  16.6247  16.8089
    17.2908  17.5171  17.7809  18.1125  18.1758  18.3938  19.0317  20.2525
    21.0572  22.6467

          k = 0.2222 0.4444 0.4444 (  3376 PWs)   bands (ev):

   -69.9449 -69.2336 -69.2292 -69.2265 -36.0034 -36.0033 -35.9966 -35.7677
   -35.5338 -35.4847 -35.2591 -35.2233 -35.2226 -35.1207 -35.1203 -35.0911
     1.9276   9.8911   9.8984  10.8938  14.2121  14.9010  14.9531  15.0921
    15.6759  16.0049  16.1170  16.2071  16.2679  16.4028  16.5162  16.6647
    17.4119  17.4466  17.8268  17.9895  18.1070  18.7699  19.1524  19.9449
    20.4436  22.9048

          k = 0.3333 0.3333 0.3333 (  3380 PWs)   bands (ev):

   -69.9450 -69.2391 -69.2251 -69.2251 -36.0044 -36.0044 -35.9956 -35.7682
   -35.5111 -35.5111 -35.2437 -35.2295 -35.2295 -35.1110 -35.1110 -35.1065
     1.8292  10.2661  10.2661  10.4031  13.9594  14.9454  14.9978  14.9978
    15.6731  15.6731  16.1377  16.2225  16.2225  16.5794  16.5794  16.7419
    17.4782  17.5638  17.5638  18.2099  18.2099  18.3492  19.7582  19.7582
    21.9480  21.9480

          k = 0.3333 0.3333 0.4444 (  3371 PWs)   bands (ev):

   -69.9449 -69.2353 -69.2288 -69.2251 -36.0056 -36.0049 -35.9992 -35.7833
   -35.5101 -35.4941 -35.2487 -35.2376 -35.2307 -35.1097 -35.1031 -35.0992
     2.0033   9.8401  10.1808  10.3028  14.0895  14.8161  14.9356  15.0691
    15.7138  15.9724  16.2232  16.3018  16.3790  16.5480  16.5902  16.7108
    17.4871  17.6905  17.7266  18.2287  18.2946  18.3253  19.0912  20.2731
    21.0628  21.9493

          k = 0.3333 0.4444 0.4444 (  3366 PWs)   bands (ev):

   -69.9448 -69.2323 -69.2291 -69.2277 -36.0069 -36.0068 -36.0031 -35.7996
   -35.5017 -35.4845 -35.2525 -35.2393 -35.2386 -35.1016 -35.1010 -35.0910
     2.1815   9.7665   9.7787  10.1670  14.0900  14.8268  14.8812  14.9464
    15.8687  16.0672  16.2560  16.2680  16.4517  16.8127  16.8192  16.9925
    17.6363  17.6657  17.7549  18.2144  18.2665  18.5545  19.0791  19.6224
    20.9408  21.9339

          k = 0.4444 0.4444 0.4444 (  3388 PWs)   bands (ev):

   -69.9449 -69.2309 -69.2292 -69.2292 -36.0092 -36.0092 -36.0078 -35.8172
   -35.4844 -35.4844 -35.2493 -35.2471 -35.2471 -35.0915 -35.0915 -35.0907
     2.3648   9.6895   9.6895   9.7178  14.0152  14.7959  14.8364  14.8364
    16.0153  16.0153  16.2678  16.2678  16.3344  17.4498  17.4498  17.4778
    17.7493  17.7493  17.9075  18.3208  18.3208  18.3242  18.9438  18.9438
    21.2477  21.2477

 ------ SPIN DOWN ----------


          k = 0.0000 0.0000 0.0000 (  3407 PWs)   bands (ev):

   -67.3736 -67.3124 -67.3124 -66.5394 -33.9929 -33.9929 -33.9929 -33.2362
   -33.2362 -33.2362 -33.1974 -33.1974 -33.1974 -32.6418 -32.6418 -32.6418
     0.4454  11.7294  13.3940  13.3940  13.3940  15.2116  15.2116  15.5335
    15.5335  15.5335  18.0407  18.0407  18.0407  18.7041  18.7041  20.2806
    20.2806  20.2806  20.4081  20.4081  20.5085  20.8722  20.8722  20.8722
    23.0632  23.9628

          k = 0.0000 0.0000 0.1111 (  3367 PWs)   bands (ev):

   -67.3718 -67.3136 -67.3121 -66.5392 -33.9914 -33.9914 -33.9904 -33.2361
   -33.2350 -33.2350 -33.1982 -33.1982 -33.1969 -32.6441 -32.6428 -32.6428
     0.5144  11.7602  13.0939  13.2805  13.2805  15.2716  15.3109  15.5907
    15.6867  15.6867  17.9630  18.1031  18.1031  18.7107  18.8010  20.2356
    20.2356  20.2810  20.3481  20.3646  20.4461  20.6224  20.6224  20.8725
    23.1048  23.6091

          k = 0.0000 0.0000 0.2222 (  3395 PWs)   bands (ev):

   -67.3671 -67.3184 -67.3123 -66.5396 -33.9884 -33.9884 -33.9867 -33.2374
   -33.2327 -33.2327 -33.2010 -33.2010 -33.1985 -32.6517 -32.6460 -32.6460
     0.6971  11.5216  12.8553  13.0412  13.0412  15.3365  15.5865  15.7543
    16.0358  16.0358  17.7473  18.2766  18.2766  18.7203  18.8140  19.9894
    19.9894  20.1249  20.1424  20.2200  20.2200  20.2814  20.3769  20.8725
    23.0989  23.2962

          k = 0.0000 0.0000 0.3333 (  3382 PWs)   bands (ev):

   -67.3601 -67.3250 -67.3122 -66.5397 -33.9847 -33.9847 -33.9816 -33.2384
   -33.2295 -33.2295 -33.2042 -33.2042 -33.1996 -32.6601 -32.6492 -32.6492
     0.9214  10.8628  12.8202  12.8202  13.2729  15.2203  15.9605  15.9951
    16.4085  16.4085  17.4485  18.5181  18.5181  18.5892  18.7027  19.4696
    19.4696  19.7697  19.8263  20.0517  20.0517  20.2822  20.3218  20.8730
    22.9360  23.5436

          k = 0.0000 0.0000 0.4444 (  3402 PWs)   bands (ev):

   -67.3535 -67.3315 -67.3124 -66.5400 -33.9826 -33.9826 -33.9784 -33.2388
   -33.2278 -33.2278 -33.2066 -33.2066 -33.2008 -32.6656 -32.6517 -32.6517
     1.0792  10.3967  12.6946  12.6946  13.9359  14.7959  16.2256  16.2624
    16.6604  16.6604  17.1798  18.4155  18.6442  18.7644  18.7644  19.0537
    19.0537  19.4991  19.6035  19.9421  19.9421  20.2823  20.2856  20.8729
    22.9018  23.7475

          k = 0.0000 0.1111 0.1111 (  3373 PWs)   bands (ev):

   -67.3702 -67.3145 -67.3129 -66.5393 -34.0040 -33.9901 -33.9753 -33.2404
   -33.2340 -33.2330 -33.2027 -33.1991 -33.1916 -32.6481 -32.6439 -32.6423
     0.5833  11.7922  12.8615  13.1403  13.1795  15.3477  15.3822  15.6566
    15.8145  15.8153  17.9263  18.1258  18.1573  18.7520  18.7965  20.1514
    20.1880  20.2143  20.2571  20.3575  20.4301  20.5245  20.5328  20.7769
    23.1397  23.8597

          k = 0.0000 0.1111 0.2222 (  3375 PWs)   bands (ev):

   -67.3654 -67.3186 -67.3134 -66.5395 -34.0133 -33.9870 -33.9594 -33.2472
   -33.2313 -33.2306 -33.2064 -33.2020 -33.1867 -32.6544 -32.6470 -32.6442
     0.7662  11.5467  12.5125  12.9603  13.0787  15.4227  15.6394  15.8234
    16.1191  16.1284  17.7346  18.2824  18.2970  18.6947  18.7301  19.8210
    19.9569  19.9624  20.0872  20.2029  20.3614  20.3776  20.4822  20.7422
    23.2074  23.4016

          k = 0.0000 0.1111 0.3333 (  3383 PWs)   bands (ev):

   -67.3587 -67.3251 -67.3134 -66.5398 -34.0190 -33.9838 -33.9460 -33.2543
   -33.2284 -33.2283 -33.2086 -33.2055 -33.1836 -32.6603 -32.6506 -32.6482
     0.9908  10.8685  12.4336  12.7528  13.4042  15.3143  16.0066  16.0648
    16.4576  16.4680  17.4445  18.3448  18.4938  18.5276  18.6584  19.4847
    19.5011  19.7219  19.8945  19.9364  20.2476  20.3621  20.3844  20.7427
    23.1206  23.4630

          k = 0.0000 0.1111 0.4444 (  3393 PWs)   bands (ev):

   -67.3522 -67.3314 -67.3135 -66.5400 -34.0218 -33.9815 -33.9383 -33.2587
   -33.2266 -33.2264 -33.2101 -33.2076 -33.1824 -32.6638 -32.6528 -32.6512
     1.1490  10.3980  12.3623  12.6335  14.0111  14.9070  16.3031  16.3035
    16.6878  16.7029  17.1810  18.1827  18.3306  18.7855  18.7923  19.0857
    19.3055  19.5820  19.6182  19.8216  20.1420  20.3060  20.3637  20.7441
    23.1033  23.5991

          k = 0.0000 0.2222 0.2222 (  3389 PWs)   bands (ev):

   -67.3611 -67.3205 -67.3157 -66.5398 -34.0349 -33.9842 -33.9330 -33.2635
   -33.2309 -33.2284 -33.2103 -33.2052 -33.1724 -32.6584 -32.6502 -32.6444
     0.9496  11.4994  11.8219  12.7771  13.2525  15.6160  15.7750  15.9970
    16.3297  16.3634  17.6312  18.2677  18.3693  18.5059  18.5787  19.6843
    19.7679  19.8191  19.9182  20.0936  20.4442  20.4470  20.5172  20.6840
    23.1192  23.9539

          k = 0.0000 0.2222 0.3333 (  3377 PWs)   bands (ev):

   -67.3549 -67.3255 -67.3165 -66.5399 -34.0496 -33.9808 -33.9120 -33.2768
   -33.2306 -33.2252 -33.2143 -33.2083 -33.1613 -32.6599 -32.6538 -32.6468
     1.1753  10.8719  11.6508  12.5961  13.6647  15.5709  16.0789  16.2378
    16.5926  16.6214  17.4059  17.9805  18.2657  18.5834  18.5885  19.5194
    19.5369  19.7123  19.7442  19.8921  20.4111  20.4120  20.4839  20.6807
    23.0117  23.7347

          k = 0.0000 0.2222 0.4444 (  3379 PWs)   bands (ev):

   -67.3487 -67.3313 -67.3168 -66.5401 -34.0573 -33.9786 -33.9004 -33.2844
   -33.2294 -33.2231 -33.2181 -33.2104 -33.1556 -32.6593 -32.6561 -32.6501
     1.3344  10.3961  11.6137  12.4895  14.2196  15.2012  16.3429  16.4876
    16.7631  16.8473  17.1767  17.7088  18.1342  18.6115  18.8663  19.1786
    19.3753  19.6206  19.6735  19.8145  20.3955  20.4170  20.4748  20.5135
    23.0489  23.6574

          k = 0.0000 0.3333 0.3333 (  3387 PWs)   bands (ev):

   -67.3492 -67.3272 -67.3205 -66.5401 -34.0721 -33.9778 -33.8859 -33.2949
   -33.2329 -33.2220 -33.2215 -33.2115 -33.1438 -32.6577 -32.6576 -32.6470
     1.4027  10.8318  10.8967  12.4367  14.0768  15.8694  16.0270  16.4606
    16.7894  16.7993  17.2938  17.6326  18.0633  18.5078  18.7327  19.3587
    19.5313  19.5336  19.7322  19.9256  20.1467  20.5077  20.5126  20.8567
    22.5358  24.3134

          k = 0.0000 0.3333 0.4444 (  3381 PWs)   bands (ev):

   -67.3434 -67.3312 -67.3220 -66.5402 -34.0838 -33.9754 -33.8716 -33.3045
   -33.2332 -33.2274 -33.2195 -33.2136 -33.1342 -32.6600 -32.6543 -32.6491
     1.5635  10.3852  10.8475  12.3411  14.5584  15.6045  16.2215  16.6894
    16.8593  17.0671  17.1535  17.3668  17.9796  18.4023  18.9742  19.2073
    19.2665  19.5026  19.5859  20.0359  20.0969  20.5246  20.5913  20.7755
    22.3313  24.3169

          k = 0.0000 0.4444 0.4444 (  3376 PWs)   bands (ev):

   -67.3374 -67.3314 -67.3276 -66.5402 -34.0977 -33.9734 -33.8559 -33.3151
   -33.2353 -33.2337 -33.2171 -33.2157 -33.1226 -32.6626 -32.6504 -32.6490
     1.7257  10.3716  10.3756  12.2514  14.9242  15.9634  15.9834  16.8460
    16.9116  16.9153  17.1174  17.5513  17.9117  18.1332  19.0468  19.0608
    19.3042  19.4736  19.5342  19.7158  20.2637  20.5372  20.7780  20.8770
    21.8704  24.8269

          k = 0.1111 0.1111 0.1111 (  3380 PWs)   bands (ev):

   -67.3686 -67.3145 -67.3145 -66.5394 -34.0174 -33.9744 -33.9744 -33.2414
   -33.2360 -33.2360 -33.2008 -33.2008 -33.1878 -32.6519 -32.6432 -32.6432
     0.6523  11.8250  12.7765  12.7765  13.1933  15.4357  15.4357  15.7977
    15.7977  15.9798  17.8990  18.1702  18.1702  18.7704  18.7704  20.0052
    20.1180  20.1424  20.1424  20.4001  20.4001  20.4018  20.6847  20.6847
    23.1810  24.0639

          k = 0.1111 0.1111 0.2222 (  3381 PWs)   bands (ev):

   -67.3640 -67.3188 -67.3146 -66.5396 -34.0316 -33.9716 -33.9538 -33.2486
   -33.2433 -33.2339 -33.2010 -33.1981 -33.1822 -32.6576 -32.6456 -32.6449
     0.8354  11.5666  12.4034  12.5855  13.2019  15.5081  15.6965  15.9212
    16.1317  16.2322  17.7285  18.2740  18.2892  18.6801  18.6803  19.6487
    19.7877  19.9256  19.9931  20.2985  20.4491  20.4711  20.5387  20.7288
    23.2585  23.5529

          k = 0.1111 0.1111 0.3333 (  3387 PWs)   bands (ev):

   -67.3575 -67.3252 -67.3145 -66.5399 -34.0414 -33.9685 -33.9368 -33.2567
   -33.2508 -33.2294 -33.1993 -33.1979 -33.1782 -32.6615 -32.6495 -32.6483
     1.0604  10.8681  12.3694  12.3983  13.5165  15.4069  16.0641  16.1443
    16.4744  16.5165  17.4472  18.2332  18.3237  18.6233  18.6583  19.2560
    19.5473  19.7161  19.8101  20.1296  20.3500  20.3766  20.5330  20.6687
    23.2547  23.4788

          k = 0.1111 0.1111 0.4444 (  3390 PWs)   bands (ev):

   -67.3511 -67.3314 -67.3145 -66.5400 -34.0463 -33.9664 -33.9272 -33.2614
   -33.2555 -33.2254 -33.1993 -33.1978 -33.1763 -32.6624 -32.6542 -32.6500
     1.2190  10.3943  12.2886  12.3288  14.0826  15.0152  16.3645  16.3813
    16.6154  16.8199  17.1846  17.9901  18.2137  18.7872  18.8090  19.0192
    19.2801  19.6465  19.6881  20.0043  20.1056  20.3068  20.5534  20.6475
    23.2679  23.5687

          k = 0.1111 0.2222 0.2222 (  3383 PWs)   bands (ev):

   -67.3598 -67.3204 -67.3169 -66.5398 -34.0547 -33.9628 -33.9322 -33.2640
   -33.2452 -33.2442 -33.1962 -33.1928 -33.1710 -32.6615 -32.6472 -32.6445
     1.0192  11.5143  11.7660  12.3864  13.3769  15.7054  15.8418  16.1108
    16.3311  16.3848  17.6418  18.2109  18.2625  18.5891  18.6017  19.4327
    19.5357  19.8341  19.8434  20.2435  20.4425  20.4850  20.7325  20.8288
    23.2304  23.9480

          k = 0.1111 0.2222 0.3333 (  3374 PWs)   bands (ev):

   -67.3537 -67.3255 -67.3176 -66.5399 -34.0714 -33.9588 -33.9106 -33.2783
   -33.2549 -33.2430 -33.1931 -33.1907 -33.1605 -32.6623 -32.6502 -32.6464
     1.2455  10.8575  11.6112  12.2603  13.7633  15.6590  16.1565  16.3301
    16.5273  16.6652  17.4266  17.9411  18.1449  18.6003  18.6607  19.2790
    19.3039  19.7077  19.8070  20.0892  20.3807  20.4340  20.7266  20.8357
    23.1215  23.7701

          k = 0.1111 0.2222 0.4444 (  3391 PWs)   bands (ev):

   -67.3478 -67.3313 -67.3178 -66.5401 -34.0805 -33.9568 -33.8983 -33.2865
   -33.2609 -33.2421 -33.1915 -33.1907 -33.1548 -32.6598 -32.6548 -32.6486
     1.4053  10.3801  11.5682  12.1828  14.2845  15.2988  16.4062  16.5681
    16.6596  16.9775  17.1962  17.6115  18.0537  18.6265  18.8409  19.0775
    19.1797  19.7035  19.8062  19.9539  20.3193  20.3832  20.4885  20.8710
    23.1471  23.7265

          k = 0.1111 0.3333 0.3333 (  3376 PWs)   bands (ev):

   -67.3483 -67.3271 -67.3211 -66.5401 -34.0945 -33.9545 -33.8855 -33.2970
   -33.2575 -33.2542 -33.1903 -33.1883 -33.1434 -32.6614 -32.6515 -32.6462
     1.4740  10.8122  10.8545  12.1290  14.1562  15.9516  16.0744  16.5538
    16.6817  16.8732  17.3274  17.6486  17.9840  18.5071  18.7403  19.0981
    19.3931  19.5433  19.9245  19.9246  20.2629  20.4113  20.8979  20.9776
    22.5963  24.2113

          k = 0.1111 0.3333 0.4444 (  3383 PWs)   bands (ev):

   -67.3428 -67.3312 -67.3226 -66.5402 -34.1069 -33.9523 -33.8712 -33.3072
   -33.2635 -33.2566 -33.1886 -33.1879 -33.1341 -32.6596 -32.6519 -32.6477
     1.6356  10.3567  10.8088  12.0480  14.6059  15.6797  16.2452  16.7772
    16.8632  17.0629  17.1783  17.4115  17.9281  18.4036  18.8149  18.9912
    19.3565  19.5853  19.7342  19.9971  20.1419  20.5091  20.7315  21.0722
    22.3523  24.2449

          k = 0.1111 0.4444 0.4444 (  3377 PWs)   bands (ev):

   -67.3371 -67.3315 -67.3278 -66.5402 -34.1212 -33.9499 -33.8558 -33.3183
   -33.2656 -33.2648 -33.1872 -33.1869 -33.1226 -32.6599 -32.6489 -32.6477
     1.7989  10.3371  10.3385  11.9654  14.9348  16.0006  16.0404  16.8478
    16.9395  17.0018  17.1573  17.6202  17.8806  18.1382  18.6859  19.0348
    19.4388  19.5806  19.6279  19.9208  19.9914  20.7266  20.8647  21.1306
    21.8242  24.5856

          k = 0.2222 0.2222 0.2222 (  3386 PWs)   bands (ev):

   -67.3561 -67.3205 -67.3205 -66.5399 -34.0834 -33.9302 -33.9302 -33.2664
   -33.2664 -33.2637 -33.1801 -33.1801 -33.1650 -32.6645 -32.6450 -32.6450
     1.2042  11.5056  11.6327  11.6327  13.6129  15.9667  15.9667  16.3812
    16.3960  16.3960  17.6138  18.0858  18.0858  18.6335  18.6335  19.2207
    19.2266  19.7416  19.7416  20.3378  20.4373  20.4373  21.0802  21.0802
    23.3974  23.8161

          k = 0.2222 0.2222 0.3333 (  3386 PWs)   bands (ev):

   -67.3506 -67.3258 -67.3204 -66.5401 -34.1054 -33.9280 -33.9037 -33.2833
   -33.2810 -33.2666 -33.1752 -33.1696 -33.1557 -32.6636 -32.6465 -32.6455
     1.4326  10.8141  11.4936  11.5399  14.0024  15.8929  16.3485  16.3806
    16.5658  16.7439  17.4594  17.8193  17.9647  18.6055  18.6850  18.9736
    19.2138  19.6816  19.7900  20.2381  20.3911  20.4172  20.9558  21.2849
    23.3373  23.6145

          k = 0.2222 0.2222 0.4444 (  3373 PWs)   bands (ev):

   -67.3450 -67.3311 -67.3203 -66.5401 -34.1170 -33.9264 -33.8889 -33.2926
   -33.2897 -33.2674 -33.1732 -33.1647 -33.1496 -32.6589 -32.6512 -32.6456
     1.5941  10.3372  11.4087  11.5215  14.4653  15.5481  16.4104  16.6976
    16.7867  17.0776  17.2516  17.4547  17.9242  18.6151  18.7204  18.7979
    19.2525  19.7837  19.9002  20.1208  20.3447  20.3573  20.5394  21.3910
    23.3745  23.4649

          k = 0.2222 0.3333 0.3333 (  3377 PWs)   bands (ev):

   -67.3459 -67.3271 -67.3235 -66.5401 -34.1321 -33.9156 -33.8845 -33.3030
   -33.2876 -33.2837 -33.1642 -33.1621 -33.1425 -32.6608 -32.6455 -32.6445
     1.6640  10.7515  10.7595  11.4192  14.3588  16.1260  16.1737  16.5869
    16.7958  16.9211  17.4231  17.6827  17.8427  18.5146  18.6471  18.7606
    19.3529  19.6429  19.8910  20.1758  20.3809  20.3977  21.0666  21.4858
    22.7516  23.7081

          k = 0.2222 0.3333 0.4444 (  3377 PWs)   bands (ev):

   -67.3409 -67.3311 -67.3244 -66.5402 -34.1466 -33.9127 -33.8699 -33.3142
   -33.2962 -33.2881 -33.1617 -33.1575 -33.1335 -32.6562 -32.6473 -32.6443
     1.8283  10.2851  10.7134  11.3574  14.7246  15.8579  16.2695  16.8393
    17.0111  17.0617  17.3093  17.5570  17.8454  18.4190  18.5328  18.7262
    19.4685  19.7477  19.9628  20.0609  20.3217  20.4542  20.7319  21.6890
    22.3546  23.6881

          k = 0.2222 0.4444 0.4444 (  3376 PWs)   bands (ev):

   -67.3362 -67.3314 -67.3286 -66.5402 -34.1625 -33.9087 -33.8558 -33.3261
   -33.2999 -33.2994 -33.1563 -33.1559 -33.1225 -32.6533 -32.6450 -32.6445
     1.9949  10.2476  10.2518  11.2845  14.9459  16.0847  16.1710  16.6786
    17.2041  17.2409  17.3393  17.7450  17.8426  18.1950  18.3664  18.7278
    19.6947  19.7353  19.8889  19.9604  20.2309  20.6461  20.8146  21.6143
    21.8559  23.8902

          k = 0.3333 0.3333 0.3333 (  3380 PWs)   bands (ev):

   -67.3423 -67.3271 -67.3271 -66.5402 -34.1626 -33.8836 -33.8836 -33.3107
   -33.3107 -33.3049 -33.1461 -33.1461 -33.1390 -32.6563 -32.6427 -32.6427
     1.9000  10.6406  10.6406  10.7348  14.6306  16.0849  16.4474  16.4474
    17.0967  17.0967  17.5109  17.7467  17.7467  18.4495  18.5256  18.5256
    19.5068  19.8520  19.8520  20.2893  20.3765  20.3765  21.3677  21.3677
    22.9690  22.9690

          k = 0.3333 0.3333 0.4444 (  3371 PWs)   bands (ev):

   -67.3381 -67.3311 -67.3270 -66.5401 -34.1792 -33.8828 -33.8657 -33.3233
   -33.3194 -33.3123 -33.1433 -33.1368 -33.1312 -32.6508 -32.6432 -32.6412
     2.0682  10.2048  10.5715  10.6651  14.8557  16.0363  16.2884  16.6336
    17.3169  17.3336  17.5118  17.7311  17.8236  18.2889  18.4215  18.5177
    19.6674  19.9048  20.0209  20.2098  20.3910  20.4085  20.7765  21.7181
    22.3419  23.1527

          k = 0.3333 0.4444 0.4444 (  3366 PWs)   bands (ev):

   -67.3348 -67.3314 -67.3298 -66.5401 -34.1971 -33.8741 -33.8555 -33.3347
   -33.3262 -33.3254 -33.1341 -33.1335 -33.1223 -32.6457 -32.6407 -32.6405
     2.2397  10.1487  10.1583  10.5573  14.9345  16.1696  16.2831  16.4804
    17.5940  17.6011  17.6685  17.8595  17.8657  18.1326  18.3005  18.4929
    19.8644  19.9518  20.0425  20.1411  20.4205  20.4855  20.7232  21.2323
    22.3657  23.1193

          k = 0.4444 0.4444 0.4444 (  3388 PWs)   bands (ev):

   -67.3333 -67.3315 -67.3315 -66.5402 -34.2163 -33.8555 -33.8555 -33.3405
   -33.3405 -33.3395 -33.1228 -33.1228 -33.1219 -32.6405 -32.6385 -32.6385
     2.4154  10.0865  10.0865  10.1091  14.9162  16.2394  16.3307  16.3307
    17.8946  17.8946  17.9820  17.9820  17.9872  18.0012  18.3667  18.3667
    20.0137  20.0717  20.0717  20.2601  20.3446  20.3446  20.7360  20.7360
    22.6680  22.6680

     the Fermi energy is    18.7335 ev

!    total energy              =   -1345.14161840 Ry
     Harris-Foulkes estimate   =   -1345.14161840 Ry
     estimated scf accuracy    <          6.4E-09 Ry

     total all-electron energy =    -10291.743254 Ry

     The total energy is the sum of the following terms:

     one-electron contribution =    -446.70083124 Ry
     hartree contribution      =     269.16820229 Ry
     xc contribution           =    -117.07112587 Ry
     ewald contribution        =    -711.61403732 Ry
     one-center paw contrib.   =    -338.92390810 Ry
     smearing contrib. (-TS)   =       0.00008184 Ry

     total magnetization       =     7.67 Bohr mag/cell
     absolute magnetization    =     8.02 Bohr mag/cell

     convergence has been achieved in  25 iterations

     Forces acting on atoms (Ry/au):


     negative rho (up, down):  0.000E+00 3.267E-04
     atom    1 type  1   force =     0.00000000    0.00000000    0.00000000
     atom    2 type  1   force =     0.00000000    0.00000000    0.00000000
     atom    3 type  1   force =     0.00000000    0.00000000    0.00000000
     atom    4 type  1   force =     0.00000000    0.00000000    0.00000000
     atom    5 type  2   force =     0.00000000    0.00000000    0.00000000

     Total force =     0.000000     Total SCF correction =     0.000000


     entering subroutine stress ...


     negative rho (up, down):  0.000E+00 3.267E-04
          total   stress  (Ry/bohr**3)                   (kbar)     P=  103.89
   0.00070624   0.00000000   0.00000000        103.89      0.00      0.00
   0.00000000   0.00070624   0.00000000          0.00    103.89      0.00
   0.00000000   0.00000000   0.00070624          0.00      0.00    103.89


     Writing output data file config.save
 
     init_run     :      2.30s CPU      2.53s WALL (       1 calls)
     electrons    :    130.60s CPU    134.58s WALL (       1 calls)
     forces       :      0.50s CPU      0.51s WALL (       1 calls)
     stress       :      1.50s CPU      1.51s WALL (       1 calls)

     Called by init_run:
     wfcinit      :      1.45s CPU      1.59s WALL (       1 calls)
     potinit      :      0.47s CPU      0.48s WALL (       1 calls)

     Called by electrons:
     c_bands      :    101.80s CPU    104.71s WALL (      25 calls)
     sum_band     :     17.14s CPU     17.65s WALL (      25 calls)
     v_of_rho     :      0.79s CPU      0.82s WALL (      26 calls)
     newd         :      1.20s CPU      1.23s WALL (      26 calls)
     mix_rho      :      0.20s CPU      0.20s WALL (      25 calls)

     Called by c_bands:
     init_us_2    :      1.42s CPU      1.45s WALL (    3710 calls)
     cegterg      :     95.73s CPU     98.40s WALL (    1750 calls)

     Called by sum_band:
     sum_band:bec :      0.05s CPU      0.06s WALL (    1750 calls)
     addusdens    :      3.08s CPU      3.11s WALL (      25 calls)

     Called by *egterg:
     h_psi        :     57.87s CPU     59.59s WALL (    6287 calls)
     s_psi        :      2.20s CPU      2.28s WALL (    6287 calls)
     g_psi        :      0.52s CPU      0.53s WALL (    4467 calls)
     cdiaghg      :     18.34s CPU     18.82s WALL (    6217 calls)

     Called by h_psi:
     add_vuspsi   :      2.25s CPU      2.33s WALL (    6287 calls)

     General routines
     calbec       :      4.86s CPU      5.04s WALL (    8387 calls)
     fft          :      0.44s CPU      0.45s WALL (     840 calls)
     ffts         :      0.02s CPU      0.02s WALL (     102 calls)
     fftw         :     51.04s CPU     52.45s WALL (  426870 calls)
     interpolate  :      0.09s CPU      0.10s WALL (     102 calls)
     davcio       :      0.03s CPU      1.15s WALL (      70 calls)
 
     Parallel routines
     fft_scatter  :     20.03s CPU     20.87s WALL (  427812 calls)

     PAW routines
     PAW_pot      :      9.84s CPU     10.14s WALL (      26 calls)
     PAW_symme    :      0.04s CPU      0.04s WALL (      51 calls)
 
     PWSCF        :  2m15.45s CPU     2m21.22s WALL

 
   This run was terminated on:  20:18:36  26Oct2020            

=------------------------------------------------------------------------------=
   JOB DONE.
=------------------------------------------------------------------------------=
