
     Program PWSCF v.5.2.0 starts on 26Oct2020 at 22:21:49 

     This program is part of the open-source Quantum ESPRESSO suite
     for quantum simulation of materials; please cite
         "P. Giannozzi et al., J. Phys.:Condens. Matter 21 395502 (2009);
          URL http://www.quantum-espresso.org", 
     in publications or presentations arising from this work. More details at
     http://www.quantum-espresso.org/quote

     Parallel version (MPI), running on     6 processors
     R & G space division:  proc/nbgrp/npool/nimage =       6
     Reading input from 1.in

     Current dimensions of program PWSCF are:
     Max number of different atomic species (ntypx) = 10
     Max number of k-points (npk) =  40000
     Max angular momentum in pseudopotentials (lmaxx) =  3

     IMPORTANT: XC functional enforced from input :
     Exchange-correlation      = PBE ( 1  4  3  4 0 0)
     Any further DFT definition will be discarded
     Please, verify this is what you really want

               file Fe_PSEUDO: wavefunction(s)  3P 3D renormalized
               file N_PSEUDO: wavefunction(s)  2S renormalized

     Subspace diagonalization in iterative solution of the eigenvalue problem:
     a serial algorithm will be used

 
     Parallelization info
     --------------------
     sticks:   dense  smooth     PW     G-vecs:    dense   smooth      PW
     Min         228     154     46                 6416     3464     566
     Max         229     155     47                 6417     3487     569
     Sum        1369     925    277                38497    20863    3407
 
     Generating pointlists ...
     new r_m :   0.2063 (alat units)  1.4318 (a.u.) for type    1
     new r_m :   0.2063 (alat units)  1.4318 (a.u.) for type    2


     bravais-lattice index     =            0
     lattice parameter (alat)  =       6.9422  a.u.
     unit-cell volume          =     334.5777 (a.u.)^3
     number of atoms/cell      =            5
     number of atomic types    =            2
     number of electrons       =        69.00
     number of Kohn-Sham states=           42
     kinetic-energy cutoff     =      60.0000  Ry
     charge density cutoff     =     360.0000  Ry
     convergence threshold     =      1.0E-08
     mixing beta               =       0.7000
     number of iterations used =            8  plain     mixing
     Exchange-correlation      = PBE ( 1  4  3  4 0 0)

     celldm(1)=   6.942230  celldm(2)=   0.000000  celldm(3)=   0.000000
     celldm(4)=   0.000000  celldm(5)=   0.000000  celldm(6)=   0.000000

     crystal axes: (cart. coord. in units of alat)
               a(1) = (   1.000000   0.000000   0.000000 )  
               a(2) = (   0.000000   1.000000   0.000000 )  
               a(3) = (   0.000000   0.000000   1.000000 )  

     reciprocal axes: (cart. coord. in units 2 pi/alat)
               b(1) = (  1.000000  0.000000  0.000000 )  
               b(2) = (  0.000000  1.000000  0.000000 )  
               b(3) = (  0.000000  0.000000  1.000000 )  


     PseudoPot. # 1 for Fe read from file:
     pseudo/Fe_PSEUDO
     MD5 check sum: e30d5f36a6f0cb983ee41abee56170da
     Pseudo is Projector augmented-wave + core cor, Zval = 16.0
     Generated using "atomic" code by A. Dal Corso  v.6.3
     Shape of augmentation charge: PSQ
     Using radial grid of 1191 points,  6 beta functions with: 
                l(1) =   0
                l(2) =   0
                l(3) =   1
                l(4) =   1
                l(5) =   2
                l(6) =   2
     Q(r) pseudized with 0 coefficients 


     PseudoPot. # 2 for  N read from file:
     pseudo/N_PSEUDO
     MD5 check sum: 14c48229446f9f2d411169a3abcbc3fa
     Pseudo is Projector augmented-wave + core cor, Zval =  5.0
     Generated using "atomic" code by A. Dal Corso  v.6.3
     Shape of augmentation charge: PSQ
     Using radial grid of 1085 points,  4 beta functions with: 
                l(1) =   0
                l(2) =   0
                l(3) =   1
                l(4) =   1
     Q(r) pseudized with 0 coefficients 


     atomic species   valence    mass     pseudopotential
        Fe            16.00    55.84500     Fe( 1.00)
        N              5.00    14.00650      N( 1.00)

     Starting magnetic structure 
     atomic species   magnetization
        Fe           0.500
        N           -0.010

     48 Sym. Ops., with inversion, found



   Cartesian axes

     site n.     atom                  positions (alat units)
         1           Fe  tau(   1) = (   0.0000000   0.5000000   0.5000000  )
         2           Fe  tau(   2) = (   0.5000000   0.5000000   0.0000000  )
         3           Fe  tau(   3) = (   0.5000000   0.0000000   0.5000000  )
         4           Fe  tau(   4) = (   0.0000000   0.0000000   0.0000000  )
         5           N   tau(   5) = (   0.5000000   0.5000000   0.5000000  )

     number of k points=    70  Marzari-Vanderbilt smearing, width (Ry)=  0.0050
                       cart. coord. in units 2pi/alat
        k(    1) = (   0.0000000   0.0000000   0.0000000), wk =   0.0013717
        k(    2) = (   0.0000000   0.0000000   0.1111111), wk =   0.0082305
        k(    3) = (   0.0000000   0.0000000   0.2222222), wk =   0.0082305
        k(    4) = (   0.0000000   0.0000000   0.3333333), wk =   0.0082305
        k(    5) = (   0.0000000   0.0000000   0.4444444), wk =   0.0082305
        k(    6) = (   0.0000000   0.1111111   0.1111111), wk =   0.0164609
        k(    7) = (   0.0000000   0.1111111   0.2222222), wk =   0.0329218
        k(    8) = (   0.0000000   0.1111111   0.3333333), wk =   0.0329218
        k(    9) = (   0.0000000   0.1111111   0.4444444), wk =   0.0329218
        k(   10) = (   0.0000000   0.2222222   0.2222222), wk =   0.0164609
        k(   11) = (   0.0000000   0.2222222   0.3333333), wk =   0.0329218
        k(   12) = (   0.0000000   0.2222222   0.4444444), wk =   0.0329218
        k(   13) = (   0.0000000   0.3333333   0.3333333), wk =   0.0164609
        k(   14) = (   0.0000000   0.3333333   0.4444444), wk =   0.0329218
        k(   15) = (   0.0000000   0.4444444   0.4444444), wk =   0.0164609
        k(   16) = (   0.1111111   0.1111111   0.1111111), wk =   0.0109739
        k(   17) = (   0.1111111   0.1111111   0.2222222), wk =   0.0329218
        k(   18) = (   0.1111111   0.1111111   0.3333333), wk =   0.0329218
        k(   19) = (   0.1111111   0.1111111   0.4444444), wk =   0.0329218
        k(   20) = (   0.1111111   0.2222222   0.2222222), wk =   0.0329218
        k(   21) = (   0.1111111   0.2222222   0.3333333), wk =   0.0658436
        k(   22) = (   0.1111111   0.2222222   0.4444444), wk =   0.0658436
        k(   23) = (   0.1111111   0.3333333   0.3333333), wk =   0.0329218
        k(   24) = (   0.1111111   0.3333333   0.4444444), wk =   0.0658436
        k(   25) = (   0.1111111   0.4444444   0.4444444), wk =   0.0329218
        k(   26) = (   0.2222222   0.2222222   0.2222222), wk =   0.0109739
        k(   27) = (   0.2222222   0.2222222   0.3333333), wk =   0.0329218
        k(   28) = (   0.2222222   0.2222222   0.4444444), wk =   0.0329218
        k(   29) = (   0.2222222   0.3333333   0.3333333), wk =   0.0329218
        k(   30) = (   0.2222222   0.3333333   0.4444444), wk =   0.0658436
        k(   31) = (   0.2222222   0.4444444   0.4444444), wk =   0.0329218
        k(   32) = (   0.3333333   0.3333333   0.3333333), wk =   0.0109739
        k(   33) = (   0.3333333   0.3333333   0.4444444), wk =   0.0329218
        k(   34) = (   0.3333333   0.4444444   0.4444444), wk =   0.0329218
        k(   35) = (   0.4444444   0.4444444   0.4444444), wk =   0.0109739
        k(   36) = (   0.0000000   0.0000000   0.0000000), wk =   0.0013717
        k(   37) = (   0.0000000   0.0000000   0.1111111), wk =   0.0082305
        k(   38) = (   0.0000000   0.0000000   0.2222222), wk =   0.0082305
        k(   39) = (   0.0000000   0.0000000   0.3333333), wk =   0.0082305
        k(   40) = (   0.0000000   0.0000000   0.4444444), wk =   0.0082305
        k(   41) = (   0.0000000   0.1111111   0.1111111), wk =   0.0164609
        k(   42) = (   0.0000000   0.1111111   0.2222222), wk =   0.0329218
        k(   43) = (   0.0000000   0.1111111   0.3333333), wk =   0.0329218
        k(   44) = (   0.0000000   0.1111111   0.4444444), wk =   0.0329218
        k(   45) = (   0.0000000   0.2222222   0.2222222), wk =   0.0164609
        k(   46) = (   0.0000000   0.2222222   0.3333333), wk =   0.0329218
        k(   47) = (   0.0000000   0.2222222   0.4444444), wk =   0.0329218
        k(   48) = (   0.0000000   0.3333333   0.3333333), wk =   0.0164609
        k(   49) = (   0.0000000   0.3333333   0.4444444), wk =   0.0329218
        k(   50) = (   0.0000000   0.4444444   0.4444444), wk =   0.0164609
        k(   51) = (   0.1111111   0.1111111   0.1111111), wk =   0.0109739
        k(   52) = (   0.1111111   0.1111111   0.2222222), wk =   0.0329218
        k(   53) = (   0.1111111   0.1111111   0.3333333), wk =   0.0329218
        k(   54) = (   0.1111111   0.1111111   0.4444444), wk =   0.0329218
        k(   55) = (   0.1111111   0.2222222   0.2222222), wk =   0.0329218
        k(   56) = (   0.1111111   0.2222222   0.3333333), wk =   0.0658436
        k(   57) = (   0.1111111   0.2222222   0.4444444), wk =   0.0658436
        k(   58) = (   0.1111111   0.3333333   0.3333333), wk =   0.0329218
        k(   59) = (   0.1111111   0.3333333   0.4444444), wk =   0.0658436
        k(   60) = (   0.1111111   0.4444444   0.4444444), wk =   0.0329218
        k(   61) = (   0.2222222   0.2222222   0.2222222), wk =   0.0109739
        k(   62) = (   0.2222222   0.2222222   0.3333333), wk =   0.0329218
        k(   63) = (   0.2222222   0.2222222   0.4444444), wk =   0.0329218
        k(   64) = (   0.2222222   0.3333333   0.3333333), wk =   0.0329218
        k(   65) = (   0.2222222   0.3333333   0.4444444), wk =   0.0658436
        k(   66) = (   0.2222222   0.4444444   0.4444444), wk =   0.0329218
        k(   67) = (   0.3333333   0.3333333   0.3333333), wk =   0.0109739
        k(   68) = (   0.3333333   0.3333333   0.4444444), wk =   0.0329218
        k(   69) = (   0.3333333   0.4444444   0.4444444), wk =   0.0329218
        k(   70) = (   0.4444444   0.4444444   0.4444444), wk =   0.0109739

     Dense  grid:    38497 G-vectors     FFT dimensions: (  45,  45,  45)

     Smooth grid:    20863 G-vectors     FFT dimensions: (  36,  36,  36)

     Largest allocated arrays     est. size (Mb)     dimensions
        Kohn-Sham Wavefunctions         0.28 Mb     (     444,   42)
        NL pseudopotentials             0.54 Mb     (     444,   80)
        Each V/rho on FFT grid          0.49 Mb     (   16200,   2)
        Each G-vector array             0.05 Mb     (    6416)
        G-vector shells                 0.00 Mb     (     356)
     Largest temporary arrays     est. size (Mb)     dimensions
        Auxiliary wavefunctions         1.14 Mb     (     444,  168)
        Each subspace H/S matrix        0.43 Mb     (     168,  168)
        Each <psi_i|beta_j> matrix      0.05 Mb     (      80,   42)
        Arrays for rho mixing           1.98 Mb     (   16200,    8)

     Check: negative/imaginary core charge=   -0.000006    0.000000

     Initial potential from superposition of free atoms

     starting charge   68.99837, renormalised to   69.00000
     Starting wfc are   44 randomized atomic wfcs
     Checking if some PAW data can be deallocated... 

     total cpu time spent up to now is        2.6 secs

     per-process dynamical memory:    44.7 Mb

     Self-consistent Calculation

     iteration #  1     ecut=    60.00 Ry     beta=0.70
     Davidson diagonalization with overlap
     ethr =  1.00E-02,  avg # of iterations =  3.0

     negative rho (up, down):  0.000E+00 3.480E-04
 
     Magnetic moment per site:
     atom:    1    charge:   12.7312    magn:    4.0984    constr:    0.0000
     atom:    2    charge:   12.7312    magn:    4.0984    constr:    0.0000
     atom:    3    charge:   12.7312    magn:    4.0984    constr:    0.0000
     atom:    4    charge:   12.6139    magn:    4.1677    constr:    0.0000
     atom:    5    charge:    4.6364    magn:    0.1184    constr:    0.0000

     total cpu time spent up to now is        7.6 secs

     total energy              =   -1344.09622619 Ry
     Harris-Foulkes estimate   =   -1343.39833590 Ry
     estimated scf accuracy    <       2.86829019 Ry

     total magnetization       =    13.87 Bohr mag/cell
     absolute magnetization    =    14.05 Bohr mag/cell

     iteration #  2     ecut=    60.00 Ry     beta=0.70
     Davidson diagonalization with overlap
     ethr =  4.16E-03,  avg # of iterations =  3.4

     negative rho (up, down):  0.000E+00 6.796E-05
 
     Magnetic moment per site:
     atom:    1    charge:   12.7223    magn:    3.8161    constr:    0.0000
     atom:    2    charge:   12.7223    magn:    3.8161    constr:    0.0000
     atom:    3    charge:   12.7223    magn:    3.8161    constr:    0.0000
     atom:    4    charge:   13.0648    magn:    3.5705    constr:    0.0000
     atom:    5    charge:    4.2256    magn:    0.0569    constr:    0.0000

     total cpu time spent up to now is       12.3 secs

     total energy              =   -1343.25595746 Ry
     Harris-Foulkes estimate   =   -1345.69664414 Ry
     estimated scf accuracy    <       8.47041907 Ry

     total magnetization       =     9.38 Bohr mag/cell
     absolute magnetization    =    10.50 Bohr mag/cell

     iteration #  3     ecut=    60.00 Ry     beta=0.70
     Davidson diagonalization with overlap
     ethr =  4.16E-03,  avg # of iterations =  3.5

     negative rho (up, down):  0.000E+00 4.121E-05
 
     Magnetic moment per site:
     atom:    1    charge:   12.8830    magn:    3.4470    constr:    0.0000
     atom:    2    charge:   12.8830    magn:    3.4470    constr:    0.0000
     atom:    3    charge:   12.8830    magn:    3.4470    constr:    0.0000
     atom:    4    charge:   12.8114    magn:    3.0182    constr:    0.0000
     atom:    5    charge:    4.0298    magn:    0.0239    constr:    0.0000

     total cpu time spent up to now is       17.0 secs

     total energy              =   -1343.57297372 Ry
     Harris-Foulkes estimate   =   -1346.14384910 Ry
     estimated scf accuracy    <      25.55405347 Ry

     total magnetization       =     3.79 Bohr mag/cell
     absolute magnetization    =     4.49 Bohr mag/cell

     iteration #  4     ecut=    60.00 Ry     beta=0.70
     Davidson diagonalization with overlap
     ethr =  4.16E-03,  avg # of iterations =  3.2

     negative rho (up, down):  0.000E+00 1.948E-04
 
     Magnetic moment per site:
     atom:    1    charge:   12.7721    magn:    2.2645    constr:    0.0000
     atom:    2    charge:   12.7721    magn:    2.2645    constr:    0.0000
     atom:    3    charge:   12.7721    magn:    2.2645    constr:    0.0000
     atom:    4    charge:   12.7283    magn:    1.8815    constr:    0.0000
     atom:    5    charge:    4.0539    magn:   -0.0483    constr:    0.0000

     total cpu time spent up to now is       21.4 secs

     total energy              =   -1344.97949410 Ry
     Harris-Foulkes estimate   =   -1345.05959766 Ry
     estimated scf accuracy    <       0.55154486 Ry

     total magnetization       =    10.75 Bohr mag/cell
     absolute magnetization    =    11.16 Bohr mag/cell

     iteration #  5     ecut=    60.00 Ry     beta=0.70
     Davidson diagonalization with overlap
     ethr =  7.99E-04,  avg # of iterations =  3.2

     negative rho (up, down):  0.000E+00 2.107E-04
 
     Magnetic moment per site:
     atom:    1    charge:   12.8315    magn:    2.1633    constr:    0.0000
     atom:    2    charge:   12.8315    magn:    2.1633    constr:    0.0000
     atom:    3    charge:   12.8315    magn:    2.1633    constr:    0.0000
     atom:    4    charge:   12.8042    magn:    2.0459    constr:    0.0000
     atom:    5    charge:    4.1102    magn:   -0.0265    constr:    0.0000

     total cpu time spent up to now is       26.5 secs

     total energy              =   -1345.06576513 Ry
     Harris-Foulkes estimate   =   -1345.15394445 Ry
     estimated scf accuracy    <       0.24487945 Ry

     total magnetization       =     9.58 Bohr mag/cell
     absolute magnetization    =     9.94 Bohr mag/cell

     iteration #  6     ecut=    60.00 Ry     beta=0.70
     Davidson diagonalization with overlap
     ethr =  3.55E-04,  avg # of iterations =  3.0

     negative rho (up, down):  0.000E+00 2.954E-04
 
     Magnetic moment per site:
     atom:    1    charge:   12.8253    magn:    2.1125    constr:    0.0000
     atom:    2    charge:   12.8253    magn:    2.1125    constr:    0.0000
     atom:    3    charge:   12.8253    magn:    2.1125    constr:    0.0000
     atom:    4    charge:   12.7929    magn:    2.3732    constr:    0.0000
     atom:    5    charge:    4.1118    magn:    0.0063    constr:    0.0000

     total cpu time spent up to now is       31.2 secs

     total energy              =   -1345.11298027 Ry
     Harris-Foulkes estimate   =   -1345.10873529 Ry
     estimated scf accuracy    <       0.02648785 Ry

     total magnetization       =     9.37 Bohr mag/cell
     absolute magnetization    =     9.71 Bohr mag/cell

     iteration #  7     ecut=    60.00 Ry     beta=0.70
     Davidson diagonalization with overlap
     ethr =  3.84E-05,  avg # of iterations =  1.7

     negative rho (up, down):  0.000E+00 4.424E-04
 
     Magnetic moment per site:
     atom:    1    charge:   12.8262    magn:    1.9475    constr:    0.0000
     atom:    2    charge:   12.8262    magn:    1.9475    constr:    0.0000
     atom:    3    charge:   12.8262    magn:    1.9475    constr:    0.0000
     atom:    4    charge:   12.7728    magn:    2.8055    constr:    0.0000
     atom:    5    charge:    4.1108    magn:    0.0382    constr:    0.0000

     total cpu time spent up to now is       35.1 secs

     total energy              =   -1345.11292673 Ry
     Harris-Foulkes estimate   =   -1345.11475236 Ry
     estimated scf accuracy    <       0.01810881 Ry

     total magnetization       =     9.36 Bohr mag/cell
     absolute magnetization    =     9.70 Bohr mag/cell

     iteration #  8     ecut=    60.00 Ry     beta=0.70
     Davidson diagonalization with overlap
     ethr =  2.62E-05,  avg # of iterations =  2.2

     negative rho (up, down):  0.000E+00 4.398E-04
 
     Magnetic moment per site:
     atom:    1    charge:   12.8293    magn:    1.8479    constr:    0.0000
     atom:    2    charge:   12.8293    magn:    1.8479    constr:    0.0000
     atom:    3    charge:   12.8293    magn:    1.8479    constr:    0.0000
     atom:    4    charge:   12.7751    magn:    2.7256    constr:    0.0000
     atom:    5    charge:    4.1085    magn:    0.0302    constr:    0.0000

     total cpu time spent up to now is       39.3 secs

     total energy              =   -1345.11805562 Ry
     Harris-Foulkes estimate   =   -1345.11705644 Ry
     estimated scf accuracy    <       0.00213982 Ry

     total magnetization       =     8.95 Bohr mag/cell
     absolute magnetization    =     9.30 Bohr mag/cell

     iteration #  9     ecut=    60.00 Ry     beta=0.70
     Davidson diagonalization with overlap
     ethr =  3.10E-06,  avg # of iterations =  2.1

     negative rho (up, down):  0.000E+00 4.455E-04
 
     Magnetic moment per site:
     atom:    1    charge:   12.8269    magn:    2.0007    constr:    0.0000
     atom:    2    charge:   12.8269    magn:    2.0007    constr:    0.0000
     atom:    3    charge:   12.8269    magn:    2.0007    constr:    0.0000
     atom:    4    charge:   12.7741    magn:    2.7587    constr:    0.0000
     atom:    5    charge:    4.1141    magn:    0.0391    constr:    0.0000

     total cpu time spent up to now is       43.3 secs

     total energy              =   -1345.11474930 Ry
     Harris-Foulkes estimate   =   -1345.11896930 Ry
     estimated scf accuracy    <       0.00222956 Ry

     total magnetization       =     8.51 Bohr mag/cell
     absolute magnetization    =     8.90 Bohr mag/cell

     iteration # 10     ecut=    60.00 Ry     beta=0.70
     Davidson diagonalization with overlap
     ethr =  3.10E-06,  avg # of iterations =  2.1

     negative rho (up, down):  0.000E+00 4.415E-04
 
     Magnetic moment per site:
     atom:    1    charge:   12.8251    magn:    2.1053    constr:    0.0000
     atom:    2    charge:   12.8251    magn:    2.1053    constr:    0.0000
     atom:    3    charge:   12.8251    magn:    2.1053    constr:    0.0000
     atom:    4    charge:   12.7754    magn:    2.7406    constr:    0.0000
     atom:    5    charge:    4.1183    magn:    0.0471    constr:    0.0000

     total cpu time spent up to now is       47.3 secs

     total energy              =   -1345.11436075 Ry
     Harris-Foulkes estimate   =   -1345.11665366 Ry
     estimated scf accuracy    <       0.00238273 Ry

     total magnetization       =     9.10 Bohr mag/cell
     absolute magnetization    =     9.44 Bohr mag/cell

     iteration # 11     ecut=    60.00 Ry     beta=0.70
     Davidson diagonalization with overlap
     ethr =  3.10E-06,  avg # of iterations =  2.0

     negative rho (up, down):  0.000E+00 4.226E-04
 
     Magnetic moment per site:
     atom:    1    charge:   12.8326    magn:    1.7044    constr:    0.0000
     atom:    2    charge:   12.8326    magn:    1.7044    constr:    0.0000
     atom:    3    charge:   12.8326    magn:    1.7044    constr:    0.0000
     atom:    4    charge:   12.7752    magn:    2.6946    constr:    0.0000
     atom:    5    charge:    4.1035    magn:    0.0128    constr:    0.0000

     total cpu time spent up to now is       51.5 secs

     total energy              =   -1345.10980676 Ry
     Harris-Foulkes estimate   =   -1345.11509860 Ry
     estimated scf accuracy    <       0.00328409 Ry

     total magnetization       =     9.39 Bohr mag/cell
     absolute magnetization    =     9.72 Bohr mag/cell

     iteration # 12     ecut=    60.00 Ry     beta=0.70
     Davidson diagonalization with overlap
     ethr =  3.10E-06,  avg # of iterations =  3.1

     negative rho (up, down):  0.000E+00 4.052E-04
 
     Magnetic moment per site:
     atom:    1    charge:   12.8383    magn:    1.3919    constr:    0.0000
     atom:    2    charge:   12.8383    magn:    1.3919    constr:    0.0000
     atom:    3    charge:   12.8383    magn:    1.3919    constr:    0.0000
     atom:    4    charge:   12.7747    magn:    2.6503    constr:    0.0000
     atom:    5    charge:    4.0911    magn:   -0.0155    constr:    0.0000

     total cpu time spent up to now is       58.6 secs

     total energy              =   -1345.11654818 Ry
     Harris-Foulkes estimate   =   -1345.12113894 Ry
     estimated scf accuracy    <       0.00100469 Ry

     total magnetization       =     8.16 Bohr mag/cell
     absolute magnetization    =     8.54 Bohr mag/cell

     iteration # 13     ecut=    60.00 Ry     beta=0.70
     Davidson diagonalization with overlap
     ethr =  1.46E-06,  avg # of iterations =  3.3

     negative rho (up, down):  0.000E+00 4.021E-04
 
     Magnetic moment per site:
     atom:    1    charge:   12.8397    magn:    1.3374    constr:    0.0000
     atom:    2    charge:   12.8397    magn:    1.3374    constr:    0.0000
     atom:    3    charge:   12.8397    magn:    1.3374    constr:    0.0000
     atom:    4    charge:   12.7750    magn:    2.6460    constr:    0.0000
     atom:    5    charge:    4.0885    magn:   -0.0216    constr:    0.0000

     total cpu time spent up to now is       64.3 secs

     total energy              =   -1345.12160970 Ry
     Harris-Foulkes estimate   =   -1345.12201026 Ry
     estimated scf accuracy    <       0.00032310 Ry

     total magnetization       =     7.40 Bohr mag/cell
     absolute magnetization    =     7.78 Bohr mag/cell

     iteration # 14     ecut=    60.00 Ry     beta=0.70
     Davidson diagonalization with overlap
     ethr =  4.68E-07,  avg # of iterations =  2.1

     negative rho (up, down):  0.000E+00 4.043E-04
 
     Magnetic moment per site:
     atom:    1    charge:   12.8383    magn:    1.3908    constr:    0.0000
     atom:    2    charge:   12.8383    magn:    1.3908    constr:    0.0000
     atom:    3    charge:   12.8383    magn:    1.3908    constr:    0.0000
     atom:    4    charge:   12.7745    magn:    2.6503    constr:    0.0000
     atom:    5    charge:    4.0906    magn:   -0.0150    constr:    0.0000

     total cpu time spent up to now is       68.0 secs

     total energy              =   -1345.12184794 Ry
     Harris-Foulkes estimate   =   -1345.12179931 Ry
     estimated scf accuracy    <       0.00061979 Ry

     total magnetization       =     7.27 Bohr mag/cell
     absolute magnetization    =     7.64 Bohr mag/cell

     iteration # 15     ecut=    60.00 Ry     beta=0.70
     Davidson diagonalization with overlap
     ethr =  4.68E-07,  avg # of iterations =  2.0

     negative rho (up, down):  0.000E+00 4.028E-04
 
     Magnetic moment per site:
     atom:    1    charge:   12.8374    magn:    1.4322    constr:    0.0000
     atom:    2    charge:   12.8374    magn:    1.4322    constr:    0.0000
     atom:    3    charge:   12.8374    magn:    1.4322    constr:    0.0000
     atom:    4    charge:   12.7746    magn:    2.6523    constr:    0.0000
     atom:    5    charge:    4.0924    magn:   -0.0106    constr:    0.0000

     total cpu time spent up to now is       71.8 secs

     total energy              =   -1345.12202917 Ry
     Harris-Foulkes estimate   =   -1345.12202875 Ry
     estimated scf accuracy    <       0.00032489 Ry

     total magnetization       =     7.40 Bohr mag/cell
     absolute magnetization    =     7.77 Bohr mag/cell

     iteration # 16     ecut=    60.00 Ry     beta=0.70
     Davidson diagonalization with overlap
     ethr =  4.68E-07,  avg # of iterations =  1.8

     negative rho (up, down):  0.000E+00 4.059E-04
 
     Magnetic moment per site:
     atom:    1    charge:   12.8354    magn:    1.4952    constr:    0.0000
     atom:    2    charge:   12.8354    magn:    1.4952    constr:    0.0000
     atom:    3    charge:   12.8354    magn:    1.4952    constr:    0.0000
     atom:    4    charge:   12.7737    magn:    2.6572    constr:    0.0000
     atom:    5    charge:    4.0953    magn:   -0.0025    constr:    0.0000

     total cpu time spent up to now is       75.4 secs

     total energy              =   -1345.12188952 Ry
     Harris-Foulkes estimate   =   -1345.12214484 Ry
     estimated scf accuracy    <       0.00007989 Ry

     total magnetization       =     7.52 Bohr mag/cell
     absolute magnetization    =     7.88 Bohr mag/cell

     iteration # 17     ecut=    60.00 Ry     beta=0.70
     Davidson diagonalization with overlap
     ethr =  1.16E-07,  avg # of iterations =  3.0

     negative rho (up, down):  0.000E+00 4.063E-04
 
     Magnetic moment per site:
     atom:    1    charge:   12.8344    magn:    1.5346    constr:    0.0000
     atom:    2    charge:   12.8344    magn:    1.5346    constr:    0.0000
     atom:    3    charge:   12.8344    magn:    1.5346    constr:    0.0000
     atom:    4    charge:   12.7736    magn:    2.6570    constr:    0.0000
     atom:    5    charge:    4.0966    magn:    0.0014    constr:    0.0000

     total cpu time spent up to now is       80.7 secs

     total energy              =   -1345.12202035 Ry
     Harris-Foulkes estimate   =   -1345.12217188 Ry
     estimated scf accuracy    <       0.00002927 Ry

     total magnetization       =     7.69 Bohr mag/cell
     absolute magnetization    =     8.04 Bohr mag/cell

     iteration # 18     ecut=    60.00 Ry     beta=0.70
     Davidson diagonalization with overlap
     ethr =  4.24E-08,  avg # of iterations =  3.0

     negative rho (up, down):  0.000E+00 4.060E-04
 
     Magnetic moment per site:
     atom:    1    charge:   12.8344    magn:    1.5365    constr:    0.0000
     atom:    2    charge:   12.8344    magn:    1.5365    constr:    0.0000
     atom:    3    charge:   12.8344    magn:    1.5365    constr:    0.0000
     atom:    4    charge:   12.7737    magn:    2.6565    constr:    0.0000
     atom:    5    charge:    4.0965    magn:    0.0012    constr:    0.0000

     total cpu time spent up to now is       85.7 secs

     total energy              =   -1345.12211514 Ry
     Harris-Foulkes estimate   =   -1345.12211662 Ry
     estimated scf accuracy    <       0.00008678 Ry

     total magnetization       =     7.79 Bohr mag/cell
     absolute magnetization    =     8.14 Bohr mag/cell

     iteration # 19     ecut=    60.00 Ry     beta=0.70
     Davidson diagonalization with overlap
     ethr =  4.24E-08,  avg # of iterations =  1.0

     negative rho (up, down):  0.000E+00 4.055E-04
 
     Magnetic moment per site:
     atom:    1    charge:   12.8346    magn:    1.5269    constr:    0.0000
     atom:    2    charge:   12.8346    magn:    1.5269    constr:    0.0000
     atom:    3    charge:   12.8346    magn:    1.5269    constr:    0.0000
     atom:    4    charge:   12.7737    magn:    2.6553    constr:    0.0000
     atom:    5    charge:    4.0962    magn:   -0.0001    constr:    0.0000

     total cpu time spent up to now is       89.3 secs

     total energy              =   -1345.12213042 Ry
     Harris-Foulkes estimate   =   -1345.12211558 Ry
     estimated scf accuracy    <       0.00007632 Ry

     total magnetization       =     7.80 Bohr mag/cell
     absolute magnetization    =     8.15 Bohr mag/cell

     iteration # 20     ecut=    60.00 Ry     beta=0.70
     Davidson diagonalization with overlap
     ethr =  4.24E-08,  avg # of iterations =  1.2

     negative rho (up, down):  0.000E+00 4.036E-04
 
     Magnetic moment per site:
     atom:    1    charge:   12.8354    magn:    1.4887    constr:    0.0000
     atom:    2    charge:   12.8354    magn:    1.4887    constr:    0.0000
     atom:    3    charge:   12.8354    magn:    1.4887    constr:    0.0000
     atom:    4    charge:   12.7738    magn:    2.6516    constr:    0.0000
     atom:    5    charge:    4.0947    magn:   -0.0044    constr:    0.0000

     total cpu time spent up to now is       92.9 secs

     total energy              =   -1345.12208130 Ry
     Harris-Foulkes estimate   =   -1345.12213648 Ry
     estimated scf accuracy    <       0.00004542 Ry

     total magnetization       =     7.78 Bohr mag/cell
     absolute magnetization    =     8.12 Bohr mag/cell

     iteration # 21     ecut=    60.00 Ry     beta=0.70
     Davidson diagonalization with overlap
     ethr =  4.24E-08,  avg # of iterations =  3.0

     negative rho (up, down):  0.000E+00 4.040E-04
 
     Magnetic moment per site:
     atom:    1    charge:   12.8356    magn:    1.4810    constr:    0.0000
     atom:    2    charge:   12.8356    magn:    1.4810    constr:    0.0000
     atom:    3    charge:   12.8356    magn:    1.4810    constr:    0.0000
     atom:    4    charge:   12.7738    magn:    2.6528    constr:    0.0000
     atom:    5    charge:    4.0945    magn:   -0.0045    constr:    0.0000

     total cpu time spent up to now is       98.1 secs

     total energy              =   -1345.12217669 Ry
     Harris-Foulkes estimate   =   -1345.12217927 Ry
     estimated scf accuracy    <       0.00000270 Ry

     total magnetization       =     7.68 Bohr mag/cell
     absolute magnetization    =     8.03 Bohr mag/cell

     iteration # 22     ecut=    60.00 Ry     beta=0.70
     Davidson diagonalization with overlap
     ethr =  3.92E-09,  avg # of iterations =  3.0

     negative rho (up, down):  0.000E+00 4.042E-04
 
     Magnetic moment per site:
     atom:    1    charge:   12.8357    magn:    1.4762    constr:    0.0000
     atom:    2    charge:   12.8357    magn:    1.4762    constr:    0.0000
     atom:    3    charge:   12.8357    magn:    1.4762    constr:    0.0000
     atom:    4    charge:   12.7737    magn:    2.6536    constr:    0.0000
     atom:    5    charge:    4.0942    magn:   -0.0046    constr:    0.0000

     total cpu time spent up to now is      102.9 secs

     total energy              =   -1345.12217962 Ry
     Harris-Foulkes estimate   =   -1345.12218078 Ry
     estimated scf accuracy    <       0.00000027 Ry

     total magnetization       =     7.66 Bohr mag/cell
     absolute magnetization    =     8.01 Bohr mag/cell

     iteration # 23     ecut=    60.00 Ry     beta=0.70
     Davidson diagonalization with overlap
     ethr =  3.86E-10,  avg # of iterations =  3.4

     negative rho (up, down):  0.000E+00 4.042E-04
 
     Magnetic moment per site:
     atom:    1    charge:   12.8356    magn:    1.4774    constr:    0.0000
     atom:    2    charge:   12.8356    magn:    1.4774    constr:    0.0000
     atom:    3    charge:   12.8356    magn:    1.4774    constr:    0.0000
     atom:    4    charge:   12.7737    magn:    2.6534    constr:    0.0000
     atom:    5    charge:    4.0943    magn:   -0.0046    constr:    0.0000

     total cpu time spent up to now is      108.3 secs

     total energy              =   -1345.12218100 Ry
     Harris-Foulkes estimate   =   -1345.12218120 Ry
     estimated scf accuracy    <       0.00000041 Ry

     total magnetization       =     7.64 Bohr mag/cell
     absolute magnetization    =     7.99 Bohr mag/cell

     iteration # 24     ecut=    60.00 Ry     beta=0.70
     Davidson diagonalization with overlap
     ethr =  3.86E-10,  avg # of iterations =  2.2

     negative rho (up, down):  0.000E+00 4.043E-04
 
     Magnetic moment per site:
     atom:    1    charge:   12.8357    magn:    1.4769    constr:    0.0000
     atom:    2    charge:   12.8357    magn:    1.4769    constr:    0.0000
     atom:    3    charge:   12.8357    magn:    1.4769    constr:    0.0000
     atom:    4    charge:   12.7737    magn:    2.6536    constr:    0.0000
     atom:    5    charge:    4.0943    magn:   -0.0046    constr:    0.0000

     total cpu time spent up to now is      112.6 secs

     total energy              =   -1345.12218113 Ry
     Harris-Foulkes estimate   =   -1345.12218112 Ry
     estimated scf accuracy    <       0.00000005 Ry

     total magnetization       =     7.65 Bohr mag/cell
     absolute magnetization    =     8.00 Bohr mag/cell

     iteration # 25     ecut=    60.00 Ry     beta=0.70
     Davidson diagonalization with overlap
     ethr =  6.56E-11,  avg # of iterations =  2.2

     negative rho (up, down):  0.000E+00 4.043E-04
 
     Magnetic moment per site:
     atom:    1    charge:   12.8357    magn:    1.4769    constr:    0.0000
     atom:    2    charge:   12.8357    magn:    1.4769    constr:    0.0000
     atom:    3    charge:   12.8357    magn:    1.4769    constr:    0.0000
     atom:    4    charge:   12.7737    magn:    2.6536    constr:    0.0000
     atom:    5    charge:    4.0943    magn:   -0.0047    constr:    0.0000

     total cpu time spent up to now is      116.7 secs

     total energy              =   -1345.12218114 Ry
     Harris-Foulkes estimate   =   -1345.12218114 Ry
     estimated scf accuracy    <       0.00000003 Ry

     total magnetization       =     7.65 Bohr mag/cell
     absolute magnetization    =     8.00 Bohr mag/cell

     iteration # 26     ecut=    60.00 Ry     beta=0.70
     Davidson diagonalization with overlap
     ethr =  4.20E-11,  avg # of iterations =  1.0

     negative rho (up, down):  0.000E+00 4.044E-04
 
     Magnetic moment per site:
     atom:    1    charge:   12.8357    magn:    1.4762    constr:    0.0000
     atom:    2    charge:   12.8357    magn:    1.4762    constr:    0.0000
     atom:    3    charge:   12.8357    magn:    1.4762    constr:    0.0000
     atom:    4    charge:   12.7737    magn:    2.6538    constr:    0.0000
     atom:    5    charge:    4.0943    magn:   -0.0047    constr:    0.0000

     total cpu time spent up to now is      120.0 secs

     total energy              =   -1345.12218113 Ry
     Harris-Foulkes estimate   =   -1345.12218114 Ry
     estimated scf accuracy    <       0.00000002 Ry

     total magnetization       =     7.65 Bohr mag/cell
     absolute magnetization    =     8.00 Bohr mag/cell

     iteration # 27     ecut=    60.00 Ry     beta=0.70
     Davidson diagonalization with overlap
     ethr =  2.24E-11,  avg # of iterations =  3.1

     negative rho (up, down):  0.000E+00 4.044E-04
 
     Magnetic moment per site:
     atom:    1    charge:   12.8357    magn:    1.4760    constr:    0.0000
     atom:    2    charge:   12.8357    magn:    1.4760    constr:    0.0000
     atom:    3    charge:   12.8357    magn:    1.4760    constr:    0.0000
     atom:    4    charge:   12.7736    magn:    2.6539    constr:    0.0000
     atom:    5    charge:    4.0942    magn:   -0.0047    constr:    0.0000

     total cpu time spent up to now is      124.7 secs

     End of self-consistent calculation

 ------ SPIN UP ------------


          k = 0.0000 0.0000 0.0000 (  2601 PWs)   bands (ev):

   -69.9505 -69.2651 -69.2108 -69.2108 -36.0043 -36.0043 -36.0043 -35.6155
   -35.6155 -35.6155 -35.1571 -35.1571 -35.1571 -35.1505 -35.1505 -35.1505
     0.3434  11.4317  13.3305  13.3305  13.3305  13.8442  13.8442  14.1099
    14.1099  14.1099  16.0980  16.0980  16.0980  17.2063  17.2063  17.8539
    17.8539  18.4094  18.4094  18.4094  18.4743  18.4743  18.4743  18.4782
    21.8947  23.7578

          k = 0.0000 0.0000 0.1111 (  2609 PWs)   bands (ev):

   -69.9504 -69.2636 -69.2125 -69.2109 -36.0033 -36.0033 -36.0030 -35.6144
   -35.6144 -35.6134 -35.1582 -35.1582 -35.1574 -35.1553 -35.1517 -35.1517
     0.4131  11.4891  12.9279  13.1112  13.1112  13.9236  13.9351  14.1622
    14.3484  14.3484  16.0334  16.1520  16.1520  17.2294  17.2650  17.8224
    17.8776  18.3221  18.3221  18.4090  18.4090  18.4095  18.4171  18.4732
    21.9707  23.2399

          k = 0.0000 0.0000 0.2222 (  2641 PWs)   bands (ev):

   -69.9503 -69.2600 -69.2166 -69.2110 -36.0010 -36.0010 -35.9997 -35.6115
   -35.6115 -35.6075 -35.1682 -35.1610 -35.1610 -35.1582 -35.1548 -35.1548
     0.5981  11.3398  12.5067  12.7684  12.7684  14.0858  14.1401  14.3141
    14.7555  14.7555  15.8504  16.2779  16.2779  17.2019  17.2938  17.7322
    17.7756  17.9622  17.9622  18.2498  18.4099  18.4116  18.4116  18.4704
    22.1844  22.5215

          k = 0.0000 0.0000 0.3333 (  2621 PWs)   bands (ev):

   -69.9499 -69.2542 -69.2224 -69.2110 -35.9981 -35.9981 -35.9957 -35.6079
   -35.6079 -35.5998 -35.1828 -35.1647 -35.1647 -35.1590 -35.1575 -35.1575
     0.8260  10.6712  12.4987  12.4987  12.8495  14.2024  14.4222  14.5477
    15.1482  15.1482  15.5813  16.3696  16.3696  16.9906  17.3281  17.3697
    17.5899  17.5899  17.6207  18.0271  18.4104  18.4235  18.4235  18.4676
    22.0505  22.5780

          k = 0.0000 0.0000 0.4444 (  2630 PWs)   bands (ev):

   -69.9498 -69.2488 -69.2280 -69.2110 -35.9963 -35.9963 -35.9933 -35.6056
   -35.6056 -35.5946 -35.1929 -35.1674 -35.1674 -35.1597 -35.1592 -35.1592
     0.9867  10.1844  12.3545  12.3545  13.4044  14.1297  14.6366  14.8141
    15.2917  15.4417  15.4417  16.3366  16.3366  16.7373  16.9517  17.3541
    17.3836  17.3836  17.6487  17.8139  18.4106  18.4378  18.4378  18.4659
    21.9175  22.7959

          k = 0.0000 0.1111 0.1111 (  2622 PWs)   bands (ev):

   -69.9504 -69.2624 -69.2131 -69.2117 -36.0037 -36.0025 -36.0009 -35.6256
   -35.6132 -35.5991 -35.1685 -35.1591 -35.1588 -35.1554 -35.1531 -35.1466
     0.4829  11.5427  12.6993  12.8581  12.9548  14.0008  14.0085  14.2173
    14.4915  14.5179  16.0097  16.1687  16.1984  17.2567  17.2807  17.7336
    17.7911  18.2341  18.2721  18.3291  18.3348  18.4187  18.4897  18.5529
    22.0312  23.4421

          k = 0.0000 0.1111 0.2222 (  2632 PWs)   bands (ev):

   -69.9502 -69.2587 -69.2169 -69.2120 -36.0022 -36.0001 -35.9977 -35.6331
   -35.6101 -35.5831 -35.1840 -35.1637 -35.1618 -35.1566 -35.1562 -35.1423
     0.6681  11.3609  12.2621  12.6643  12.6787  14.1619  14.2115  14.3674
    14.8191  14.8637  15.8473  16.2872  16.2945  17.1675  17.3317  17.4455
    17.5919  17.9192  18.1488  18.2075  18.2527  18.3924  18.5685  18.6920
    22.2095  22.6750

          k = 0.0000 0.1111 0.3333 (  2636 PWs)   bands (ev):

   -69.9499 -69.2531 -69.2227 -69.2121 -35.9995 -35.9974 -35.9950 -35.6370
   -35.6064 -35.5690 -35.1992 -35.1688 -35.1655 -35.1592 -35.1586 -35.1401
     0.8965  10.6628  12.1399  12.4175  12.9494  14.2874  14.4908  14.5966
    15.1806  15.2202  15.5856  16.2965  16.3987  16.9363  17.1056  17.2737
    17.4983  17.5657  17.8656  18.0823  18.1900  18.3859  18.6394  18.6848
    22.2677  22.4571

          k = 0.0000 0.1111 0.4444 (  2641 PWs)   bands (ev):

   -69.9498 -69.2478 -69.2281 -69.2121 -35.9971 -35.9956 -35.9940 -35.6382
   -35.6040 -35.5607 -35.2088 -35.1721 -35.1682 -35.1609 -35.1601 -35.1393
     1.0577  10.1727  12.0391  12.2821  13.4730  14.2242  14.7059  14.8636
    15.2953  15.4655  15.4883  16.1413  16.3948  16.6687  16.8719  17.2639
    17.3646  17.4737  17.7174  17.9086  18.1535  18.3838  18.6622  18.6849
    22.1493  22.6191

          k = 0.0000 0.2222 0.2222 (  2648 PWs)   bands (ev):

   -69.9501 -69.2551 -69.2186 -69.2143 -36.0026 -35.9980 -35.9956 -35.6518
   -35.6066 -35.5577 -35.2054 -35.1664 -35.1641 -35.1599 -35.1584 -35.1288
     0.8543  11.2964  11.5687  12.4422  12.7928  14.3625  14.3884  14.5100
    15.0193  15.1155  15.7651  16.2801  16.3690  17.0309  17.0354  17.3176
    17.4668  17.7498  18.0443  18.0992  18.2667  18.3430  18.7181  19.0039
    22.1227  23.0045

          k = 0.0000 0.2222 0.3333 (  2636 PWs)   bands (ev):

   -69.9498 -69.2497 -69.2231 -69.2151 -36.0011 -35.9954 -35.9948 -35.6642
   -35.6025 -35.5369 -35.2233 -35.1692 -35.1674 -35.1634 -35.1606 -35.1196
     1.0843  10.6298  11.3691  12.2348  13.1840  14.5212  14.6661  14.7214
    15.2843  15.3966  15.5632  16.0708  16.5018  16.7653  16.8166  17.1091
    17.4830  17.6441  17.8125  17.9683  18.2057  18.3603  18.8447  19.0387
    21.9528  22.8294

          k = 0.0000 0.2222 0.4444 (  2627 PWs)   bands (ev):

   -69.9496 -69.2445 -69.2282 -69.2153 -35.9987 -35.9959 -35.9938 -35.6702
   -35.5997 -35.5251 -35.2336 -35.1711 -35.1701 -35.1652 -35.1622 -35.1152
     1.2470  10.1383  11.3046  12.1162  13.6838  14.4740  14.8959  14.9733
    15.3042  15.5021  15.6065  15.8266  16.5581  16.5582  16.6193  17.1042
    17.3064  17.5378  17.8850  17.8884  18.1865  18.2206  18.9209  18.9719
    21.9204  22.7516

          k = 0.0000 0.3333 0.3333 (  2636 PWs)   bands (ev):

   -69.9496 -69.2446 -69.2247 -69.2187 -36.0016 -35.9961 -35.9932 -35.6836
   -35.5979 -35.5116 -35.2429 -35.1699 -35.1691 -35.1679 -35.1632 -35.1048
     1.3167  10.5596  10.5971  12.0554  13.5782  14.8436  14.8482  14.8932
    15.4195  15.4651  15.6017  15.7451  16.5631  16.6558  16.6644  16.9051
    17.3351  17.6187  17.7686  17.9138  18.0530  18.5563  19.0125  19.1844
    21.2738  23.3616

          k = 0.0000 0.3333 0.4444 (  2627 PWs)   bands (ev):

   -69.9494 -69.2396 -69.2283 -69.2201 -36.0005 -35.9982 -35.9917 -35.6936
   -35.5948 -35.4974 -35.2537 -35.1723 -35.1702 -35.1691 -35.1649 -35.0970
     1.4817  10.0914  10.5364  11.9501  14.0266  14.8038  15.0900  15.1334
    15.3002  15.5156  15.5629  15.7537  16.4094  16.4812  16.7839  16.8384
    17.2107  17.4091  17.6309  17.9835  18.1820  18.5903  19.1106  19.1396
    20.9164  23.4546

          k = 0.0000 0.4444 0.4444 (  2624 PWs)   bands (ev):

   -69.9493 -69.2341 -69.2288 -69.2251 -36.0011 -36.0002 -35.9904 -35.7059
   -35.5916 -35.4821 -35.2647 -35.1737 -35.1735 -35.1677 -35.1668 -35.0874
     1.6486  10.0571  10.0576  11.8514  14.3726  15.0286  15.1907  15.2594
    15.2638  15.4139  15.5801  15.8667  16.3216  16.4036  16.5827  16.9939
    17.1205  17.2440  17.4194  17.8676  18.3916  18.9542  19.1853  19.2202
    20.1393  24.0039

          k = 0.1111 0.1111 0.1111 (  2629 PWs)   bands (ev):

   -69.9503 -69.2611 -69.2131 -69.2131 -36.0031 -36.0031 -35.9987 -35.6378
   -35.5979 -35.5979 -35.1718 -35.1678 -35.1678 -35.1486 -35.1469 -35.1469
     0.5527  11.5925  12.5646  12.5646  12.8372  14.0767  14.0767  14.3944
    14.3944  14.7386  15.9941  16.2083  16.2083  17.2749  17.2749  17.6720
    17.6720  17.9988  18.1340  18.3531  18.3531  18.4308  18.6507  18.6507
    22.0812  23.5667

          k = 0.1111 0.1111 0.2222 (  2628 PWs)   bands (ev):

   -69.9501 -69.2574 -69.2171 -69.2131 -36.0021 -36.0013 -35.9955 -35.6499
   -35.5950 -35.5775 -35.1883 -35.1782 -35.1695 -35.1490 -35.1440 -35.1417
     0.7384  11.3728  12.1449  12.2991  12.7614  14.2374  14.2825  14.4676
    14.7671  15.0183  15.8496  16.2907  16.3011  17.1841  17.3026  17.3915
    17.4154  17.7709  17.9372  18.2266  18.3541  18.3672  18.8113  18.8420
    22.2276  22.8398

          k = 0.1111 0.1111 0.3333 (  2633 PWs)   bands (ev):

   -69.9499 -69.2520 -69.2227 -69.2131 -35.9993 -35.9993 -35.9935 -35.6575
   -35.5916 -35.5601 -35.2044 -35.1870 -35.1707 -35.1508 -35.1448 -35.1376
     0.9673  10.6476  12.0654  12.0783  13.0418  14.3687  14.5597  14.6701
    15.1765  15.2863  15.5959  16.2834  16.3495  16.9232  17.0791  17.1199
    17.4391  17.6137  17.7139  18.0988  18.2610  18.3428  18.6902  19.0010
    22.4257  22.4493

          k = 0.1111 0.1111 0.4444 (  2636 PWs)   bands (ev):

   -69.9497 -69.2467 -69.2281 -69.2132 -35.9981 -35.9961 -35.9938 -35.6608
   -35.5895 -35.5499 -35.2142 -35.1921 -35.1713 -35.1520 -35.1463 -35.1357
     1.1290  10.1557  11.9355  12.0091  13.5403  14.3122  14.7760  14.9289
    15.3058  15.4614  15.5371  16.0798  16.2828  16.6319  16.9746  17.1057
    17.3425  17.5076  17.7185  17.9394  18.1949  18.3324  18.5326  19.0920
    22.3430  22.5693

          k = 0.1111 0.2222 0.2222 (  2635 PWs)   bands (ev):

   -69.9499 -69.2539 -69.2186 -69.2153 -36.0025 -36.0004 -35.9931 -35.6702
   -35.5859 -35.5567 -35.2064 -35.1833 -35.1798 -35.1446 -35.1437 -35.1290
     0.9251  11.2987  11.4903  12.0713  12.8989  14.4330  14.4615  14.6362
    14.9440  15.2143  15.7752  16.2753  16.3465  17.0393  17.1001  17.2213
    17.4040  17.5513  17.7322  18.2573  18.2587  18.3322  19.0864  19.1198
    22.1964  23.1121

          k = 0.1111 0.2222 0.3333 (  2630 PWs)   bands (ev):

   -69.9497 -69.2487 -69.2232 -69.2160 -36.0015 -35.9990 -35.9924 -35.6844
   -35.5814 -35.5353 -35.2236 -35.1920 -35.1820 -35.1456 -35.1423 -35.1197
     1.1559  10.5994  11.3126  11.9163  13.2695  14.5823  14.7330  14.8387
    15.2690  15.3829  15.5883  16.1076  16.3783  16.7724  16.9204  17.0387
    17.4496  17.4867  17.6235  18.1617  18.2075  18.2634  19.0059  19.3422
    22.0641  22.8919

          k = 0.1111 0.2222 0.4444 (  2626 PWs)   bands (ev):

   -69.9495 -69.2436 -69.2282 -69.2161 -35.9999 -35.9977 -35.9933 -35.6915
   -35.5788 -35.5228 -35.2335 -35.1977 -35.1824 -35.1463 -35.1424 -35.1151
     1.3193  10.1087  11.2426  11.8232  13.7398  14.5339  14.9646  15.0763
    15.3087  15.4844  15.6090  15.8706  16.3052  16.5497  16.8841  16.9751
    17.3112  17.4560  17.8049  18.0606  18.1101  18.2423  18.7521  19.4832
    22.0228  22.8415

          k = 0.1111 0.3333 0.3333 (  2624 PWs)   bands (ev):

   -69.9495 -69.2439 -69.2247 -69.2192 -36.0022 -35.9990 -35.9925 -35.7045
   -35.5759 -35.5110 -35.2418 -35.1934 -35.1906 -35.1438 -35.1422 -35.1049
     1.3895  10.5256  10.5405  11.7584  13.6401  14.8273  14.9086  15.0738
    15.3354  15.4770  15.5744  15.9109  16.3740  16.6438  16.7593  16.9655
    17.3346  17.3447  17.8036  18.0216  18.1181  18.3486  19.2332  19.4759
    21.3694  23.2624

          k = 0.1111 0.3333 0.4444 (  2624 PWs)   bands (ev):

   -69.9494 -69.2389 -69.2283 -69.2207 -36.0016 -35.9998 -35.9929 -35.7151
   -35.5729 -35.4969 -35.2521 -35.1978 -35.1918 -35.1435 -35.1422 -35.0971
     1.5555  10.0501  10.4846  11.6640  14.0453  14.7994  15.0958  15.2914
    15.2993  15.5142  15.5676  15.9245  16.2972  16.4530  16.7351  16.9280
    17.2113  17.3182  17.8668  17.9843  18.0398  18.4985  19.0266  19.6671
    20.9621  23.3882

          k = 0.1111 0.4444 0.4444 (  2616 PWs)   bands (ev):

   -69.9492 -69.2337 -69.2287 -69.2254 -36.0023 -36.0015 -35.9926 -35.7277
   -35.5696 -35.4820 -35.2623 -35.1977 -35.1972 -35.1424 -35.1422 -35.0874
     1.7238  10.0087  10.0107  11.5692  14.3279  14.9857  15.0500  15.2086
    15.5514  15.5569  15.6354  16.0609  16.2635  16.3696  16.5103  16.9326
    17.1813  17.2284  17.6846  17.9442  18.0930  18.8878  19.1805  19.7075
    20.1283  23.7420

          k = 0.2222 0.2222 0.2222 (  2629 PWs)   bands (ev):

   -69.9497 -69.2506 -69.2186 -69.2186 -36.0024 -36.0024 -35.9914 -35.6958
   -35.5544 -35.5544 -35.2138 -35.1965 -35.1965 -35.1315 -35.1315 -35.1273
     1.1135  11.2724  11.3125  11.3125  13.1170  14.6272  14.6272  14.9469
    14.9469  15.3102  15.7357  16.2858  16.2858  16.9765  16.9765  17.2904
    17.2904  17.2991  17.4369  18.2376  18.2376  18.3926  19.4235  19.4235
    22.2905  23.0673

          k = 0.2222 0.2222 0.3333 (  2629 PWs)   bands (ev):

   -69.9496 -69.2459 -69.2234 -69.2186 -36.0024 -36.0024 -35.9920 -35.7150
   -35.5517 -35.5283 -35.2278 -35.2096 -35.1992 -35.1314 -35.1237 -35.1178
     1.3469  10.5182  11.1367  11.2369  13.4828  14.7385  14.8968  15.1057
    15.2965  15.3018  15.6731  16.1545  16.2407  16.7309  16.7938  17.1890
    17.1938  17.3846  17.5289  18.1709  18.2289  18.3271  19.2508  19.7724
    22.2560  22.6994

          k = 0.2222 0.2222 0.4444 (  2617 PWs)   bands (ev):

   -69.9494 -69.2410 -69.2282 -69.2186 -36.0024 -36.0005 -35.9941 -35.7249
   -35.5499 -35.5135 -35.2367 -35.2167 -35.1994 -35.1320 -35.1202 -35.1123
     1.5126  10.0339  11.0331  11.1950  13.8890  14.6691  15.1523  15.1532
    15.4088  15.4965  15.6168  15.9939  16.1905  16.5036  16.7793  17.0152
    17.1533  17.5678  17.7314  18.1061  18.2071  18.2514  18.8201  20.0223
    22.2679  22.3819

          k = 0.2222 0.3333 0.3333 (  2624 PWs)   bands (ev):

   -69.9494 -69.2417 -69.2247 -69.2214 -36.0041 -36.0033 -35.9938 -35.7389
   -35.5391 -35.5098 -35.2398 -35.2148 -35.2113 -35.1226 -35.1211 -35.1050
     1.5842  10.4061  10.4385  11.0636  13.7876  14.8973  15.0019  15.1589
    15.4088  15.4617  15.8063  16.1095  16.2206  16.6212  16.6408  16.9707
    17.3116  17.3561  17.6540  18.1624  18.2417  18.2926  19.4117  19.9266
    21.6383  22.6956

          k = 0.2222 0.3333 0.4444 (  2618 PWs)   bands (ev):

   -69.9493 -69.2372 -69.2283 -69.2222 -36.0045 -36.0033 -35.9963 -35.7516
   -35.5357 -35.4955 -35.2481 -35.2207 -35.2127 -35.1221 -35.1171 -35.0971
     1.7535   9.9492  10.3592  10.9842  14.0770  14.8090  15.0319  15.2277
    15.4949  15.7198  15.8804  16.1691  16.1953  16.4297  16.6276  16.8124
    17.2928  17.5198  17.7832  18.1163  18.1796  18.3977  19.0361  20.2562
    21.0614  22.6507

          k = 0.2222 0.4444 0.4444 (  2618 PWs)   bands (ev):

   -69.9492 -69.2330 -69.2287 -69.2261 -36.0053 -36.0050 -35.9984 -35.7661
   -35.5313 -35.4818 -35.2565 -35.2203 -35.2197 -35.1172 -35.1170 -35.0874
     1.9256   9.8911   9.8985  10.8939  14.2146  14.9019  14.9539  15.0927
    15.6772  16.0066  16.1193  16.2099  16.2708  16.4048  16.5193  16.6681
    17.4141  17.4489  17.8289  17.9932  18.1109  18.7741  19.1567  19.9489
    20.4474  22.9084

          k = 0.3333 0.3333 0.3333 (  2632 PWs)   bands (ev):

   -69.9493 -69.2384 -69.2248 -69.2248 -36.0062 -36.0062 -35.9974 -35.7667
   -35.5085 -35.5085 -35.2409 -35.2267 -35.2267 -35.1075 -35.1075 -35.1030
     1.8272  10.2661  10.2661  10.4032  13.9616  14.9467  14.9986  14.9986
    15.6742  15.6742  16.1399  16.2255  16.2255  16.5821  16.5821  16.7454
    17.4809  17.5662  17.5662  18.2134  18.2134  18.3531  19.7622  19.7622
    21.9513  21.9513

          k = 0.3333 0.3333 0.4444 (  2617 PWs)   bands (ev):

   -69.9492 -69.2347 -69.2283 -69.2247 -36.0075 -36.0066 -36.0011 -35.7818
   -35.5074 -35.4913 -35.2459 -35.2349 -35.2280 -35.1063 -35.0996 -35.0957
     2.0012   9.8401  10.1809  10.3028  14.0919  14.8169  14.9366  15.0696
    15.7150  15.9736  16.2260  16.3047  16.3813  16.5505  16.5935  16.7138
    17.4891  17.6931  17.7287  18.2323  18.2984  18.3289  19.0953  20.2768
    21.0665  21.9539

          k = 0.3333 0.4444 0.4444 (  2604 PWs)   bands (ev):

   -69.9491 -69.2317 -69.2285 -69.2272 -36.0087 -36.0086 -36.0050 -35.7982
   -35.4991 -35.4815 -35.2499 -35.2366 -35.2359 -35.0979 -35.0977 -35.0873
     2.1794   9.7666   9.7788  10.1671  14.0926  14.8274  14.8818  14.9470
    15.8699  16.0686  16.2589  16.2709  16.4549  16.8149  16.8217  16.9955
    17.6386  17.6681  17.7569  18.2182  18.2702  18.5581  19.0829  19.6258
    20.9450  21.9379

          k = 0.4444 0.4444 0.4444 (  2584 PWs)   bands (ev):

   -69.9490 -69.2301 -69.2284 -69.2284 -36.0108 -36.0108 -36.0094 -35.8158
   -35.4812 -35.4812 -35.2463 -35.2442 -35.2442 -35.0875 -35.0875 -35.0868
     2.3628   9.6898   9.6898   9.7180  14.0179  14.7966  14.8371  14.8371
    16.0168  16.0168  16.2710  16.2710  16.3377  17.4525  17.4525  17.4796
    17.7515  17.7515  17.9102  18.3245  18.3245  18.3280  18.9471  18.9471
    21.2526  21.2526

 ------ SPIN DOWN ----------


          k = 0.0000 0.0000 0.0000 (  2601 PWs)   bands (ev):

   -67.3783 -67.3178 -67.3178 -66.5390 -33.9984 -33.9984 -33.9984 -33.2393
   -33.2393 -33.2393 -33.2008 -33.2008 -33.2008 -32.6411 -32.6411 -32.6411
     0.4416  11.7292  13.3923  13.3923  13.3923  15.2095  15.2095  15.5288
    15.5288  15.5288  18.0372  18.0372  18.0372  18.7001  18.7001  20.2748
    20.2748  20.2748  20.4054  20.4054  20.5056  20.8699  20.8699  20.8699
    23.0598  23.9633

          k = 0.0000 0.0000 0.1111 (  2609 PWs)   bands (ev):

   -67.3764 -67.3197 -67.3179 -66.5392 -33.9972 -33.9972 -33.9969 -33.2397
   -33.2383 -33.2383 -33.2019 -33.2019 -33.2011 -32.6439 -32.6423 -32.6423
     0.5106  11.7602  13.0919  13.2787  13.2787  15.2692  15.3087  15.5859
    15.6822  15.6822  17.9595  18.0996  18.0996  18.7066  18.7971  20.2293
    20.2293  20.2750  20.3450  20.3616  20.4429  20.6195  20.6195  20.8699
    23.1015  23.6092

          k = 0.0000 0.0000 0.2222 (  2641 PWs)   bands (ev):

   -67.3722 -67.3242 -67.3181 -66.5397 -33.9943 -33.9943 -33.9926 -33.2410
   -33.2360 -33.2360 -33.2048 -33.2048 -33.2021 -32.6514 -32.6455 -32.6455
     0.6933  11.5209  12.8535  13.0391  13.0391  15.3343  15.5844  15.7494
    16.0318  16.0318  17.7444  18.2734  18.2734  18.7159  18.8101  19.9860
    19.9860  20.1221  20.1395  20.2156  20.2156  20.2755  20.3735  20.8701
    23.0984  23.2931

          k = 0.0000 0.0000 0.3333 (  2621 PWs)   bands (ev):

   -67.3652 -67.3305 -67.3181 -66.5398 -33.9907 -33.9907 -33.9873 -33.2418
   -33.2331 -33.2331 -33.2078 -33.2078 -33.2031 -32.6596 -32.6489 -32.6489
     0.9177  10.8616  12.8180  12.8180  13.2716  15.2184  15.9584  15.9900
    16.4050  16.4050  17.4456  18.5147  18.5147  18.5860  18.6980  19.4671
    19.4671  19.7669  19.8228  20.0465  20.0465  20.2760  20.3186  20.8703
    22.9342  23.5412

          k = 0.0000 0.0000 0.4444 (  2630 PWs)   bands (ev):

   -67.3586 -67.3370 -67.3182 -66.5400 -33.9884 -33.9884 -33.9840 -33.2425
   -33.2313 -33.2313 -33.2100 -33.2100 -33.2039 -32.6652 -32.6512 -32.6512
     1.0755  10.3953  12.6925  12.6925  13.9344  14.7947  16.2207  16.2606
    16.6572  16.6572  17.1772  18.4121  18.6395  18.7615  18.7615  19.0507
    19.0507  19.4962  19.6002  19.9371  19.9371  20.2764  20.2825  20.8705
    22.8993  23.7454

          k = 0.0000 0.1111 0.1111 (  2622 PWs)   bands (ev):

   -67.3749 -67.3204 -67.3189 -66.5394 -34.0101 -33.9961 -33.9814 -33.2440
   -33.2374 -33.2364 -33.2065 -33.2030 -33.1956 -32.6478 -32.6435 -32.6418
     0.5795  11.7922  12.8596  13.1380  13.1774  15.3453  15.3799  15.6520
    15.8101  15.8111  17.9233  18.1223  18.1539  18.7478  18.7924  20.1467
    20.1818  20.2118  20.2515  20.3540  20.4256  20.5217  20.5297  20.7740
    23.1366  23.8598

          k = 0.0000 0.1111 0.2222 (  2632 PWs)   bands (ev):

   -67.3706 -67.3244 -67.3192 -66.5397 -34.0195 -33.9931 -33.9652 -33.2512
   -33.2349 -33.2343 -33.2099 -33.2058 -33.1904 -32.6542 -32.6467 -32.6441
     0.7624  11.5459  12.5107  12.9581  13.0766  15.4204  15.6374  15.8188
    16.1153  16.1244  17.7313  18.2789  18.2934  18.6903  18.7261  19.8187
    19.9530  19.9593  20.0816  20.1997  20.3575  20.3722  20.4778  20.7393
    23.2059  23.3996

          k = 0.0000 0.1111 0.3333 (  2636 PWs)   bands (ev):

   -67.3640 -67.3308 -67.3193 -66.5400 -34.0252 -33.9897 -33.9516 -33.2582
   -33.2320 -33.2319 -33.2122 -33.2090 -33.1871 -32.6601 -32.6503 -32.6479
     0.9871  10.8671  12.4315  12.7505  13.4027  15.3123  16.0047  16.0603
    16.4541  16.4645  17.4412  18.3418  18.4898  18.5241  18.6539  19.4824
    19.4984  19.7183  19.8915  19.9309  20.2432  20.3565  20.3807  20.7401
    23.1190  23.4605

          k = 0.0000 0.1111 0.4444 (  2641 PWs)   bands (ev):

   -67.3576 -67.3370 -67.3193 -66.5402 -34.0277 -33.9873 -33.9440 -33.2625
   -33.2302 -33.2301 -33.2136 -33.2111 -33.1858 -32.6635 -32.6526 -32.6509
     1.1453  10.3964  12.3601  12.6312  14.0095  14.9057  16.2982  16.3017
    16.6845  16.6995  17.1780  18.1796  18.3267  18.7812  18.7891  19.0829
    19.3027  19.5786  19.6153  19.8163  20.1373  20.3029  20.3581  20.7417
    23.1009  23.5971

          k = 0.0000 0.2222 0.2222 (  2648 PWs)   bands (ev):

   -67.3664 -67.3263 -67.3217 -66.5400 -34.0410 -33.9902 -33.9387 -33.2674
   -33.2344 -33.2322 -33.2138 -33.2086 -33.1761 -32.6581 -32.6499 -32.6441
     0.9458  11.4984  11.8197  12.7747  13.2508  15.6138  15.7732  15.9929
    16.3259  16.3595  17.6277  18.2649  18.3657  18.5018  18.5745  19.6817
    19.7644  19.8167  19.9123  20.0905  20.4410  20.4418  20.5144  20.6794
    23.1178  23.9522

          k = 0.0000 0.2222 0.3333 (  2636 PWs)   bands (ev):

   -67.3601 -67.3312 -67.3225 -66.5401 -34.0559 -33.9868 -33.9176 -33.2809
   -33.2342 -33.2289 -33.2179 -33.2118 -33.1647 -32.6597 -32.6535 -32.6465
     1.1715  10.8701  11.6486  12.5936  13.6634  15.5690  16.0772  16.2337
    16.5888  16.6177  17.4023  17.9778  18.2615  18.5801  18.5843  19.5171
    19.5334  19.7091  19.7386  19.8892  20.4074  20.4083  20.4793  20.6761
    23.0104  23.7325

          k = 0.0000 0.2222 0.4444 (  2627 PWs)   bands (ev):

   -67.3540 -67.3368 -67.3227 -66.5401 -34.0636 -33.9845 -33.9059 -33.2885
   -33.2331 -33.2268 -33.2217 -33.2139 -33.1588 -32.6590 -32.6559 -32.6497
     1.3307  10.3942  11.6114  12.4870  14.2184  15.1999  16.3411  16.4833
    16.7596  16.8438  17.1735  17.7059  18.1301  18.6074  18.8629  19.1759
    19.3720  19.6152  19.6705  19.8113  20.3918  20.4140  20.4696  20.5093
    23.0472  23.6551

          k = 0.0000 0.3333 0.3333 (  2636 PWs)   bands (ev):

   -67.3543 -67.3327 -67.3265 -66.5402 -34.0783 -33.9835 -33.8914 -33.2989
   -33.2365 -33.2255 -33.2250 -33.2150 -33.1471 -32.6574 -32.6573 -32.6468
     1.3990  10.8298  10.8942  12.4341  14.0759  15.8674  16.0259  16.4568
    16.7858  16.7957  17.2903  17.6302  18.0589  18.5036  18.7292  19.3552
    19.5283  19.5291  19.7290  19.9223  20.1442  20.5038  20.5076  20.8525
    22.5343  24.3117

          k = 0.0000 0.3333 0.4444 (  2627 PWs)   bands (ev):

   -67.3487 -67.3367 -67.3278 -66.5402 -34.0900 -33.9813 -33.8769 -33.3085
   -33.2368 -33.2309 -33.2231 -33.2172 -33.1374 -32.6598 -32.6539 -32.6487
     1.5598  10.3829  10.8449  12.3384  14.5577  15.6030  16.2198  16.6857
    16.8557  17.0637  17.1504  17.3641  17.9753  18.3985  18.9706  19.2038
    19.2625  19.4988  19.5828  20.0331  20.0935  20.5196  20.5874  20.7714
    22.3295  24.3150

          k = 0.0000 0.4444 0.4444 (  2624 PWs)   bands (ev):

   -67.3427 -67.3371 -67.3332 -66.5403 -34.1040 -33.9792 -33.8611 -33.3192
   -33.2390 -33.2373 -33.2207 -33.2194 -33.1257 -32.6624 -32.6502 -32.6486
     1.7221  10.3690  10.3730  12.2486  14.9241  15.9618  15.9815  16.8425
    16.9081  16.9128  17.1143  17.5480  17.9073  18.1295  19.0431  19.0560
    19.3004  19.4702  19.5317  19.7131  20.2602  20.5323  20.7740  20.8727
    21.8682  24.8253

          k = 0.1111 0.1111 0.1111 (  2629 PWs)   bands (ev):

   -67.3735 -67.3204 -67.3204 -66.5396 -34.0235 -33.9803 -33.9803 -33.2451
   -33.2396 -33.2396 -33.2044 -33.2044 -33.1916 -32.6516 -32.6428 -32.6428
     0.6485  11.8248  12.7745  12.7745  13.1909  15.4334  15.4334  15.7934
    15.7934  15.9756  17.8956  18.1669  18.1669  18.7663  18.7663  19.9998
    20.1162  20.1390  20.1390  20.3949  20.3949  20.3975  20.6819  20.6819
    23.1780  24.0639

          k = 0.1111 0.1111 0.2222 (  2628 PWs)   bands (ev):

   -67.3691 -67.3246 -67.3203 -66.5397 -34.0378 -33.9775 -33.9595 -33.2525
   -33.2468 -33.2375 -33.2044 -33.2016 -33.1859 -32.6573 -32.6451 -32.6446
     0.8316  11.5657  12.4016  12.5833  13.1997  15.5059  15.6945  15.9168
    16.1277  16.2284  17.7250  18.2709  18.2857  18.6758  18.6763  19.6466
    19.7830  19.9229  19.9897  20.2938  20.4441  20.4664  20.5348  20.7258
    23.2565  23.5516

          k = 0.1111 0.1111 0.3333 (  2633 PWs)   bands (ev):

   -67.3627 -67.3307 -67.3204 -66.5400 -34.0476 -33.9743 -33.9424 -33.2605
   -33.2546 -33.2330 -33.2027 -33.2013 -33.1817 -32.6612 -32.6492 -32.6478
     1.0567  10.8665  12.3673  12.3960  13.5150  15.4051  16.0621  16.1399
    16.4709  16.5128  17.4440  18.2299  18.3206  18.6195  18.6541  19.2535
    19.5432  19.7132  19.8068  20.1246  20.3458  20.3732  20.5279  20.6661
    23.2534  23.4761

          k = 0.1111 0.1111 0.4444 (  2636 PWs)   bands (ev):

   -67.3564 -67.3370 -67.3204 -66.5401 -34.0524 -33.9722 -33.9327 -33.2651
   -33.2594 -33.2289 -33.2028 -33.2013 -33.1796 -32.6620 -32.6539 -32.6496
     1.2153  10.3925  12.2862  12.3265  14.0811  15.0139  16.3626  16.3766
    16.6120  16.8163  17.1816  17.9868  18.2103  18.7833  18.8048  19.0170
    19.2765  19.6434  19.6849  19.9992  20.1012  20.3038  20.5481  20.6449
    23.2655  23.5667

          k = 0.1111 0.2222 0.2222 (  2635 PWs)   bands (ev):

   -67.3650 -67.3263 -67.3227 -66.5400 -34.0609 -33.9686 -33.9379 -33.2678
   -33.2490 -33.2479 -33.1995 -33.1964 -33.1746 -32.6612 -32.6470 -32.6442
     1.0154  11.5131  11.7637  12.3842  13.3751  15.7032  15.8400  16.1067
    16.3272  16.3812  17.6384  18.2077  18.2589  18.5850  18.5975  19.4303
    19.5312  19.8310  19.8408  20.2388  20.4381  20.4812  20.7283  20.8248
    23.2287  23.9474

          k = 0.1111 0.2222 0.3333 (  2630 PWs)   bands (ev):

   -67.3590 -67.3312 -67.3234 -66.5401 -34.0778 -33.9647 -33.9161 -33.2824
   -33.2587 -33.2468 -33.1966 -33.1942 -33.1638 -32.6621 -32.6499 -32.6461
     1.2418  10.8555  11.6090  12.2579  13.7620  15.6571  16.1546  16.3261
    16.5239  16.6614  17.4233  17.9381  18.1409  18.5963  18.6568  19.2763
    19.2996  19.7043  19.8040  20.0846  20.3767  20.4306  20.7226  20.8311
    23.1201  23.7679

          k = 0.1111 0.2222 0.4444 (  2626 PWs)   bands (ev):

   -67.3530 -67.3368 -67.3236 -66.5401 -34.0866 -33.9625 -33.9037 -33.2904
   -33.2645 -33.2456 -33.1949 -33.1940 -33.1580 -32.6594 -32.6544 -32.6482
     1.4016  10.3780  11.5658  12.1803  14.2834  15.2974  16.4042  16.5642
    16.6565  16.9737  17.1933  17.6084  18.0499  18.6226  18.8372  19.0741
    19.1768  19.7000  19.8028  19.9497  20.3155  20.3797  20.4854  20.8665
    23.1455  23.7242

          k = 0.1111 0.3333 0.3333 (  2624 PWs)   bands (ev):

   -67.3536 -67.3327 -67.3269 -66.5401 -34.1009 -33.9603 -33.8909 -33.3011
   -33.2613 -33.2579 -33.1936 -33.1918 -33.1467 -32.6610 -32.6511 -32.6460
     1.4703  10.8101  10.8519  12.1264  14.1552  15.9495  16.0729  16.5502
    16.6785  16.8695  17.3242  17.6459  17.9797  18.5031  18.7365  19.0939
    19.3903  19.5400  19.9200  19.9213  20.2596  20.4071  20.8938  20.9732
    22.5949  24.2092

          k = 0.1111 0.3333 0.4444 (  2624 PWs)   bands (ev):

   -67.3479 -67.3366 -67.3285 -66.5402 -34.1132 -33.9580 -33.8765 -33.3113
   -33.2673 -33.2602 -33.1920 -33.1913 -33.1372 -32.6592 -32.6515 -32.6474
     1.6320  10.3543  10.8062  12.0453  14.6052  15.6781  16.2431  16.7738
    16.8603  17.0595  17.1754  17.4081  17.9239  18.3998  18.8108  18.9875
    19.3538  19.5817  19.7301  19.9933  20.1388  20.5052  20.7276  21.0680
    22.3505  24.2428

          k = 0.1111 0.4444 0.4444 (  2616 PWs)   bands (ev):

   -67.3422 -67.3370 -67.3335 -66.5402 -34.1275 -33.9556 -33.8611 -33.3223
   -33.2693 -33.2686 -33.1906 -33.1904 -33.1256 -32.6597 -32.6485 -32.6473
     1.7953  10.3345  10.3359  11.9627  14.9345  15.9988  16.0384  16.8451
    16.9363  16.9988  17.1548  17.6166  17.8763  18.1345  18.6814  19.0312
    19.4345  19.5778  19.6242  19.9174  19.9873  20.7227  20.8606  21.1266
    21.8220  24.5838

          k = 0.2222 0.2222 0.2222 (  2629 PWs)   bands (ev):

   -67.3612 -67.3262 -67.3262 -66.5400 -34.0896 -33.9359 -33.9359 -33.2701
   -33.2701 -33.2676 -33.1835 -33.1835 -33.1685 -32.6642 -32.6446 -32.6446
     1.2005  11.5042  11.6304  11.6304  13.6114  15.9647  15.9647  16.3781
    16.3922  16.3922  17.6107  18.0822  18.0822  18.6296  18.6296  19.2162
    19.2241  19.7387  19.7387  20.3330  20.4332  20.4332  21.0762  21.0762
    23.3951  23.8154

          k = 0.2222 0.2222 0.3333 (  2629 PWs)   bands (ev):

   -67.3557 -67.3314 -67.3262 -66.5401 -34.1117 -33.9336 -33.9093 -33.2873
   -33.2849 -33.2703 -33.1784 -33.1730 -33.1590 -32.6632 -32.6462 -32.6451
     1.4288  10.8119  11.4910  11.5376  14.0012  15.8909  16.3466  16.3774
    16.5624  16.7403  17.4566  17.8158  17.9608  18.6017  18.6812  18.9693
    19.2110  19.6786  19.7868  20.2333  20.3873  20.4132  20.9525  21.2809
    23.3356  23.6137

          k = 0.2222 0.2222 0.4444 (  2617 PWs)   bands (ev):

   -67.3501 -67.3366 -67.3262 -66.5401 -34.1233 -33.9321 -33.8943 -33.2968
   -33.2934 -33.2713 -33.1767 -33.1680 -33.1529 -32.6586 -32.6508 -32.6454
     1.5904  10.3350  11.4061  11.5190  14.4644  15.5465  16.4071  16.6960
    16.7832  17.0739  17.2491  17.4510  17.9204  18.6113  18.7167  18.7936
    19.2496  19.7807  19.8963  20.1159  20.3408  20.3532  20.5363  21.3869
    23.3726  23.4638

          k = 0.2222 0.3333 0.3333 (  2624 PWs)   bands (ev):

   -67.3511 -67.3327 -67.3292 -66.5401 -34.1385 -33.9212 -33.8900 -33.3071
   -33.2915 -33.2876 -33.1675 -33.1656 -33.1457 -32.6606 -32.6452 -32.6442
     1.6603  10.7488  10.7571  11.4166  14.3579  16.1236  16.1712  16.5841
    16.7929  16.9183  17.4207  17.6791  17.8384  18.5109  18.6430  18.7566
    19.3498  19.6396  19.8876  20.1710  20.3768  20.3936  21.0633  21.4821
    22.7500  23.7063

          k = 0.2222 0.3333 0.4444 (  2618 PWs)   bands (ev):

   -67.3461 -67.3366 -67.3301 -66.5401 -34.1529 -33.9183 -33.8753 -33.3182
   -33.3002 -33.2919 -33.1651 -33.1608 -33.1367 -32.6560 -32.6470 -32.6439
     1.8246  10.2825  10.7107  11.3547  14.7238  15.8558  16.2666  16.8363
    17.0086  17.0597  17.3071  17.5529  17.8413  18.4152  18.5284  18.7226
    19.4653  19.7443  19.9588  20.0565  20.3180  20.4503  20.7283  21.6853
    22.3528  23.6862

          k = 0.2222 0.4444 0.4444 (  2618 PWs)   bands (ev):

   -67.3416 -67.3369 -67.3342 -66.5401 -34.1690 -33.9144 -33.8609 -33.3302
   -33.3039 -33.3032 -33.1596 -33.1594 -33.1255 -32.6531 -32.6445 -32.6441
     1.9912  10.2449  10.2490  11.2816  14.9450  16.0822  16.1684  16.6756
    17.2020  17.2393  17.3377  17.7409  17.8382  18.1915  18.3619  18.7244
    19.6912  19.7318  19.8842  19.9566  20.2271  20.6422  20.8105  21.6117
    21.8526  23.8882

          k = 0.3333 0.3333 0.3333 (  2632 PWs)   bands (ev):

   -67.3474 -67.3328 -67.3328 -66.5402 -34.1691 -33.8890 -33.8890 -33.3148
   -33.3148 -33.3088 -33.1494 -33.1494 -33.1422 -32.6563 -32.6423 -32.6423
     1.8963  10.6378  10.6378  10.7322  14.6296  16.0819  16.4445  16.4445
    17.0949  17.0949  17.5096  17.7423  17.7423  18.4451  18.5221  18.5221
    19.5033  19.8486  19.8486  20.2843  20.3723  20.3723  21.3646  21.3646
    22.9668  22.9668

          k = 0.3333 0.3333 0.4444 (  2617 PWs)   bands (ev):

   -67.3433 -67.3365 -67.3327 -66.5401 -34.1859 -33.8882 -33.8711 -33.3276
   -33.3234 -33.3166 -33.1466 -33.1400 -33.1343 -32.6507 -32.6427 -32.6408
     2.0645  10.2021  10.5687  10.6623  14.8545  16.0336  16.2853  16.6302
    17.3161  17.3321  17.5108  17.7266  17.8192  18.2844  18.4178  18.5141
    19.6638  19.9013  20.0172  20.2048  20.3867  20.4044  20.7731  21.7155
    22.3389  23.1505

          k = 0.3333 0.4444 0.4444 (  2604 PWs)   bands (ev):

   -67.3401 -67.3367 -67.3353 -66.5400 -34.2038 -33.8796 -33.8607 -33.3390
   -33.3304 -33.3296 -33.1372 -33.1368 -33.1253 -32.6455 -32.6403 -32.6400
     2.2360  10.1460  10.1555  10.5544  14.9330  16.1666  16.2800  16.4770
    17.5935  17.6007  17.6682  17.8551  17.8610  18.1279  18.2969  18.4894
    19.8608  19.9482  20.0387  20.1362  20.4162  20.4811  20.7194  21.2294
    22.3625  23.1169

          k = 0.4444 0.4444 0.4444 (  2584 PWs)   bands (ev):

   -67.3384 -67.3366 -67.3366 -66.5397 -34.2229 -33.8604 -33.8604 -33.3447
   -33.3447 -33.3436 -33.1255 -33.1255 -33.1246 -32.6398 -32.6378 -32.6378
     2.4117  10.0838  10.0838  10.1063  14.9145  16.2362  16.3274  16.3274
    17.8915  17.8915  17.9812  17.9812  17.9880  17.9967  18.3634  18.3634
    20.0100  20.0680  20.0680  20.2551  20.3400  20.3400  20.7325  20.7325
    22.6655  22.6655

     the Fermi energy is    18.7319 ev

!    total energy              =   -1345.12218117 Ry
     Harris-Foulkes estimate   =   -1345.12218117 Ry
     estimated scf accuracy    <          7.3E-09 Ry

     total all-electron energy =    -10291.723817 Ry

     The total energy is the sum of the following terms:

     one-electron contribution =    -446.68285150 Ry
     hartree contribution      =     269.14725551 Ry
     xc contribution           =    -117.05353966 Ry
     ewald contribution        =    -711.61403732 Ry
     one-center paw contrib.   =    -338.91908049 Ry
     smearing contrib. (-TS)   =       0.00007229 Ry

     total magnetization       =     7.64 Bohr mag/cell
     absolute magnetization    =     7.99 Bohr mag/cell

     convergence has been achieved in  27 iterations

     Forces acting on atoms (Ry/au):


     negative rho (up, down):  0.000E+00 4.044E-04
     atom    1 type  1   force =     0.00000000    0.00000000    0.00000000
     atom    2 type  1   force =     0.00000000    0.00000000    0.00000000
     atom    3 type  1   force =     0.00000000    0.00000000    0.00000000
     atom    4 type  1   force =     0.00000000    0.00000000    0.00000000
     atom    5 type  2   force =     0.00000000    0.00000000    0.00000000

     Total force =     0.000000     Total SCF correction =     0.000000


     entering subroutine stress ...


     negative rho (up, down):  0.000E+00 4.044E-04
          total   stress  (Ry/bohr**3)                   (kbar)     P=  130.42
   0.00088656   0.00000000   0.00000000        130.42      0.00      0.00
   0.00000000   0.00088656   0.00000000          0.00    130.42      0.00
   0.00000000   0.00000000   0.00088656          0.00      0.00    130.42


     Writing output data file config.save
 
     init_run     :      1.89s CPU      2.10s WALL (       1 calls)
     electrons    :    118.21s CPU    122.11s WALL (       1 calls)
     forces       :      0.33s CPU      0.35s WALL (       1 calls)
     stress       :      0.93s CPU      0.94s WALL (       1 calls)

     Called by init_run:
     wfcinit      :      1.14s CPU      1.25s WALL (       1 calls)
     potinit      :      0.43s CPU      0.47s WALL (       1 calls)

     Called by electrons:
     c_bands      :     91.61s CPU     94.01s WALL (      27 calls)
     sum_band     :     13.83s CPU     14.36s WALL (      27 calls)
     v_of_rho     :      0.60s CPU      0.62s WALL (      28 calls)
     newd         :      0.87s CPU      0.90s WALL (      28 calls)
     mix_rho      :      0.15s CPU      0.15s WALL (      27 calls)

     Called by c_bands:
     init_us_2    :      1.14s CPU      1.17s WALL (    3990 calls)
     cegterg      :     86.31s CPU     88.63s WALL (    1890 calls)

     Called by sum_band:
     sum_band:bec :      0.05s CPU      0.05s WALL (    1890 calls)
     addusdens    :      2.00s CPU      2.01s WALL (      27 calls)

     Called by *egterg:
     h_psi        :     49.05s CPU     50.55s WALL (    6704 calls)
     s_psi        :      1.83s CPU      1.90s WALL (    6704 calls)
     g_psi        :      0.43s CPU      0.44s WALL (    4744 calls)
     cdiaghg      :     19.94s CPU     20.30s WALL (    6634 calls)

     Called by h_psi:
     add_vuspsi   :      1.91s CPU      1.99s WALL (    6704 calls)

     General routines
     calbec       :      4.29s CPU      4.48s WALL (    8944 calls)
     fft          :      0.34s CPU      0.35s WALL (     902 calls)
     ffts         :      0.02s CPU      0.02s WALL (     110 calls)
     fftw         :     43.69s CPU     44.94s WALL (  461066 calls)
     interpolate  :      0.07s CPU      0.07s WALL (     110 calls)
     davcio       :      0.01s CPU      0.37s WALL (      70 calls)
 
     Parallel routines
     fft_scatter  :     17.06s CPU     17.92s WALL (  462078 calls)

     PAW routines
     PAW_pot      :     11.48s CPU     11.90s WALL (      28 calls)
     PAW_symme    :      0.04s CPU      0.04s WALL (      55 calls)
 
     PWSCF        :  2m 1.94s CPU     2m 6.71s WALL

 
   This run was terminated on:  22:23:56  26Oct2020            

=------------------------------------------------------------------------------=
   JOB DONE.
=------------------------------------------------------------------------------=
