
     Program PWSCF v.5.2.0 starts on 26Oct2020 at 23:28:10 

     This program is part of the open-source Quantum ESPRESSO suite
     for quantum simulation of materials; please cite
         "P. Giannozzi et al., J. Phys.:Condens. Matter 21 395502 (2009);
          URL http://www.quantum-espresso.org", 
     in publications or presentations arising from this work. More details at
     http://www.quantum-espresso.org/quote

     Parallel version (MPI), running on     6 processors
     R & G space division:  proc/nbgrp/npool/nimage =       6
     Reading input from 10.in

     Current dimensions of program PWSCF are:
     Max number of different atomic species (ntypx) = 10
     Max number of k-points (npk) =  40000
     Max angular momentum in pseudopotentials (lmaxx) =  3

     IMPORTANT: XC functional enforced from input :
     Exchange-correlation      = PBE ( 1  4  3  4 0 0)
     Any further DFT definition will be discarded
     Please, verify this is what you really want

               file Fe_PSEUDO: wavefunction(s)  3P 3D renormalized
               file N_PSEUDO: wavefunction(s)  2S renormalized

     Subspace diagonalization in iterative solution of the eigenvalue problem:
     a serial algorithm will be used

 
     Parallelization info
     --------------------
     sticks:   dense  smooth     PW     G-vecs:    dense   smooth      PW
     Min         575     384    106                25428    13820    2032
     Max         577     385    107                25429    13835    2033
     Sum        3457    2305    641               152571    82951   12197
 
     Generating pointlists ...
     new r_m :   0.2063 (alat units)  1.4318 (a.u.) for type    1
     new r_m :   0.2063 (alat units)  1.4318 (a.u.) for type    2


     bravais-lattice index     =            0
     lattice parameter (alat)  =       6.9422  a.u.
     unit-cell volume          =     334.5777 (a.u.)^3
     number of atoms/cell      =            5
     number of atomic types    =            2
     number of electrons       =        69.00
     number of Kohn-Sham states=           42
     kinetic-energy cutoff     =     150.0000  Ry
     charge density cutoff     =     900.0000  Ry
     convergence threshold     =      1.0E-08
     mixing beta               =       0.7000
     number of iterations used =            8  plain     mixing
     Exchange-correlation      = PBE ( 1  4  3  4 0 0)

     celldm(1)=   6.942230  celldm(2)=   0.000000  celldm(3)=   0.000000
     celldm(4)=   0.000000  celldm(5)=   0.000000  celldm(6)=   0.000000

     crystal axes: (cart. coord. in units of alat)
               a(1) = (   1.000000   0.000000   0.000000 )  
               a(2) = (   0.000000   1.000000   0.000000 )  
               a(3) = (   0.000000   0.000000   1.000000 )  

     reciprocal axes: (cart. coord. in units 2 pi/alat)
               b(1) = (  1.000000  0.000000  0.000000 )  
               b(2) = (  0.000000  1.000000  0.000000 )  
               b(3) = (  0.000000  0.000000  1.000000 )  


     PseudoPot. # 1 for Fe read from file:
     pseudo/Fe_PSEUDO
     MD5 check sum: e30d5f36a6f0cb983ee41abee56170da
     Pseudo is Projector augmented-wave + core cor, Zval = 16.0
     Generated using "atomic" code by A. Dal Corso  v.6.3
     Shape of augmentation charge: PSQ
     Using radial grid of 1191 points,  6 beta functions with: 
                l(1) =   0
                l(2) =   0
                l(3) =   1
                l(4) =   1
                l(5) =   2
                l(6) =   2
     Q(r) pseudized with 0 coefficients 


     PseudoPot. # 2 for  N read from file:
     pseudo/N_PSEUDO
     MD5 check sum: 14c48229446f9f2d411169a3abcbc3fa
     Pseudo is Projector augmented-wave + core cor, Zval =  5.0
     Generated using "atomic" code by A. Dal Corso  v.6.3
     Shape of augmentation charge: PSQ
     Using radial grid of 1085 points,  4 beta functions with: 
                l(1) =   0
                l(2) =   0
                l(3) =   1
                l(4) =   1
     Q(r) pseudized with 0 coefficients 


     atomic species   valence    mass     pseudopotential
        Fe            16.00    55.84500     Fe( 1.00)
        N              5.00    14.00650      N( 1.00)

     Starting magnetic structure 
     atomic species   magnetization
        Fe           0.500
        N           -0.010

     48 Sym. Ops., with inversion, found



   Cartesian axes

     site n.     atom                  positions (alat units)
         1           Fe  tau(   1) = (   0.0000000   0.5000000   0.5000000  )
         2           Fe  tau(   2) = (   0.5000000   0.5000000   0.0000000  )
         3           Fe  tau(   3) = (   0.5000000   0.0000000   0.5000000  )
         4           Fe  tau(   4) = (   0.0000000   0.0000000   0.0000000  )
         5           N   tau(   5) = (   0.5000000   0.5000000   0.5000000  )

     number of k points=    70  Marzari-Vanderbilt smearing, width (Ry)=  0.0050
                       cart. coord. in units 2pi/alat
        k(    1) = (   0.0000000   0.0000000   0.0000000), wk =   0.0013717
        k(    2) = (   0.0000000   0.0000000   0.1111111), wk =   0.0082305
        k(    3) = (   0.0000000   0.0000000   0.2222222), wk =   0.0082305
        k(    4) = (   0.0000000   0.0000000   0.3333333), wk =   0.0082305
        k(    5) = (   0.0000000   0.0000000   0.4444444), wk =   0.0082305
        k(    6) = (   0.0000000   0.1111111   0.1111111), wk =   0.0164609
        k(    7) = (   0.0000000   0.1111111   0.2222222), wk =   0.0329218
        k(    8) = (   0.0000000   0.1111111   0.3333333), wk =   0.0329218
        k(    9) = (   0.0000000   0.1111111   0.4444444), wk =   0.0329218
        k(   10) = (   0.0000000   0.2222222   0.2222222), wk =   0.0164609
        k(   11) = (   0.0000000   0.2222222   0.3333333), wk =   0.0329218
        k(   12) = (   0.0000000   0.2222222   0.4444444), wk =   0.0329218
        k(   13) = (   0.0000000   0.3333333   0.3333333), wk =   0.0164609
        k(   14) = (   0.0000000   0.3333333   0.4444444), wk =   0.0329218
        k(   15) = (   0.0000000   0.4444444   0.4444444), wk =   0.0164609
        k(   16) = (   0.1111111   0.1111111   0.1111111), wk =   0.0109739
        k(   17) = (   0.1111111   0.1111111   0.2222222), wk =   0.0329218
        k(   18) = (   0.1111111   0.1111111   0.3333333), wk =   0.0329218
        k(   19) = (   0.1111111   0.1111111   0.4444444), wk =   0.0329218
        k(   20) = (   0.1111111   0.2222222   0.2222222), wk =   0.0329218
        k(   21) = (   0.1111111   0.2222222   0.3333333), wk =   0.0658436
        k(   22) = (   0.1111111   0.2222222   0.4444444), wk =   0.0658436
        k(   23) = (   0.1111111   0.3333333   0.3333333), wk =   0.0329218
        k(   24) = (   0.1111111   0.3333333   0.4444444), wk =   0.0658436
        k(   25) = (   0.1111111   0.4444444   0.4444444), wk =   0.0329218
        k(   26) = (   0.2222222   0.2222222   0.2222222), wk =   0.0109739
        k(   27) = (   0.2222222   0.2222222   0.3333333), wk =   0.0329218
        k(   28) = (   0.2222222   0.2222222   0.4444444), wk =   0.0329218
        k(   29) = (   0.2222222   0.3333333   0.3333333), wk =   0.0329218
        k(   30) = (   0.2222222   0.3333333   0.4444444), wk =   0.0658436
        k(   31) = (   0.2222222   0.4444444   0.4444444), wk =   0.0329218
        k(   32) = (   0.3333333   0.3333333   0.3333333), wk =   0.0109739
        k(   33) = (   0.3333333   0.3333333   0.4444444), wk =   0.0329218
        k(   34) = (   0.3333333   0.4444444   0.4444444), wk =   0.0329218
        k(   35) = (   0.4444444   0.4444444   0.4444444), wk =   0.0109739
        k(   36) = (   0.0000000   0.0000000   0.0000000), wk =   0.0013717
        k(   37) = (   0.0000000   0.0000000   0.1111111), wk =   0.0082305
        k(   38) = (   0.0000000   0.0000000   0.2222222), wk =   0.0082305
        k(   39) = (   0.0000000   0.0000000   0.3333333), wk =   0.0082305
        k(   40) = (   0.0000000   0.0000000   0.4444444), wk =   0.0082305
        k(   41) = (   0.0000000   0.1111111   0.1111111), wk =   0.0164609
        k(   42) = (   0.0000000   0.1111111   0.2222222), wk =   0.0329218
        k(   43) = (   0.0000000   0.1111111   0.3333333), wk =   0.0329218
        k(   44) = (   0.0000000   0.1111111   0.4444444), wk =   0.0329218
        k(   45) = (   0.0000000   0.2222222   0.2222222), wk =   0.0164609
        k(   46) = (   0.0000000   0.2222222   0.3333333), wk =   0.0329218
        k(   47) = (   0.0000000   0.2222222   0.4444444), wk =   0.0329218
        k(   48) = (   0.0000000   0.3333333   0.3333333), wk =   0.0164609
        k(   49) = (   0.0000000   0.3333333   0.4444444), wk =   0.0329218
        k(   50) = (   0.0000000   0.4444444   0.4444444), wk =   0.0164609
        k(   51) = (   0.1111111   0.1111111   0.1111111), wk =   0.0109739
        k(   52) = (   0.1111111   0.1111111   0.2222222), wk =   0.0329218
        k(   53) = (   0.1111111   0.1111111   0.3333333), wk =   0.0329218
        k(   54) = (   0.1111111   0.1111111   0.4444444), wk =   0.0329218
        k(   55) = (   0.1111111   0.2222222   0.2222222), wk =   0.0329218
        k(   56) = (   0.1111111   0.2222222   0.3333333), wk =   0.0658436
        k(   57) = (   0.1111111   0.2222222   0.4444444), wk =   0.0658436
        k(   58) = (   0.1111111   0.3333333   0.3333333), wk =   0.0329218
        k(   59) = (   0.1111111   0.3333333   0.4444444), wk =   0.0658436
        k(   60) = (   0.1111111   0.4444444   0.4444444), wk =   0.0329218
        k(   61) = (   0.2222222   0.2222222   0.2222222), wk =   0.0109739
        k(   62) = (   0.2222222   0.2222222   0.3333333), wk =   0.0329218
        k(   63) = (   0.2222222   0.2222222   0.4444444), wk =   0.0329218
        k(   64) = (   0.2222222   0.3333333   0.3333333), wk =   0.0329218
        k(   65) = (   0.2222222   0.3333333   0.4444444), wk =   0.0658436
        k(   66) = (   0.2222222   0.4444444   0.4444444), wk =   0.0329218
        k(   67) = (   0.3333333   0.3333333   0.3333333), wk =   0.0109739
        k(   68) = (   0.3333333   0.3333333   0.4444444), wk =   0.0329218
        k(   69) = (   0.3333333   0.4444444   0.4444444), wk =   0.0329218
        k(   70) = (   0.4444444   0.4444444   0.4444444), wk =   0.0109739

     Dense  grid:   152571 G-vectors     FFT dimensions: (  72,  72,  72)

     Smooth grid:    82951 G-vectors     FFT dimensions: (  60,  60,  60)

     Largest allocated arrays     est. size (Mb)     dimensions
        Kohn-Sham Wavefunctions         1.11 Mb     (    1733,   42)
        NL pseudopotentials             2.12 Mb     (    1733,   80)
        Each V/rho on FFT grid          1.90 Mb     (   62208,   2)
        Each G-vector array             0.19 Mb     (   25429)
        G-vector shells                 0.01 Mb     (     911)
     Largest temporary arrays     est. size (Mb)     dimensions
        Auxiliary wavefunctions         4.44 Mb     (    1733,  168)
        Each subspace H/S matrix        0.43 Mb     (     168,  168)
        Each <psi_i|beta_j> matrix      0.05 Mb     (      80,   42)
        Arrays for rho mixing           7.59 Mb     (   62208,    8)

     Initial potential from superposition of free atoms

     starting charge   68.99837, renormalised to   69.00000
     Starting wfc are   44 randomized atomic wfcs
     Checking if some PAW data can be deallocated... 

     total cpu time spent up to now is        6.4 secs

     per-process dynamical memory:   127.0 Mb

     Self-consistent Calculation

     iteration #  1     ecut=   150.00 Ry     beta=0.70
     Davidson diagonalization with overlap
     ethr =  1.00E-02,  avg # of iterations =  3.1

     negative rho (up, down):  0.000E+00 3.398E-04
 
     Magnetic moment per site:
     atom:    1    charge:   12.7331    magn:    4.0979    constr:    0.0000
     atom:    2    charge:   12.7331    magn:    4.0979    constr:    0.0000
     atom:    3    charge:   12.7331    magn:    4.0979    constr:    0.0000
     atom:    4    charge:   12.6137    magn:    4.1672    constr:    0.0000
     atom:    5    charge:    4.6360    magn:    0.1188    constr:    0.0000

     total cpu time spent up to now is       22.7 secs

     total energy              =   -1344.14416151 Ry
     Harris-Foulkes estimate   =   -1343.44653331 Ry
     estimated scf accuracy    <       2.86624040 Ry

     total magnetization       =    13.87 Bohr mag/cell
     absolute magnetization    =    14.05 Bohr mag/cell

     iteration #  2     ecut=   150.00 Ry     beta=0.70
     Davidson diagonalization with overlap
     ethr =  4.15E-03,  avg # of iterations =  3.4

     negative rho (up, down):  0.000E+00 2.929E-04
 
     Magnetic moment per site:
     atom:    1    charge:   12.7242    magn:    3.8171    constr:    0.0000
     atom:    2    charge:   12.7242    magn:    3.8171    constr:    0.0000
     atom:    3    charge:   12.7242    magn:    3.8171    constr:    0.0000
     atom:    4    charge:   13.0649    magn:    3.5708    constr:    0.0000
     atom:    5    charge:    4.2263    magn:    0.0574    constr:    0.0000

     total cpu time spent up to now is       39.1 secs

     total energy              =   -1343.30105363 Ry
     Harris-Foulkes estimate   =   -1345.74990027 Ry
     estimated scf accuracy    <       8.51851645 Ry

     total magnetization       =     9.38 Bohr mag/cell
     absolute magnetization    =    10.50 Bohr mag/cell

     iteration #  3     ecut=   150.00 Ry     beta=0.70
     Davidson diagonalization with overlap
     ethr =  4.15E-03,  avg # of iterations =  3.5

     negative rho (up, down):  0.000E+00 2.228E-04
 
     Magnetic moment per site:
     atom:    1    charge:   12.8849    magn:    3.4483    constr:    0.0000
     atom:    2    charge:   12.8849    magn:    3.4483    constr:    0.0000
     atom:    3    charge:   12.8849    magn:    3.4483    constr:    0.0000
     atom:    4    charge:   12.8121    magn:    3.0185    constr:    0.0000
     atom:    5    charge:    4.0302    magn:    0.0244    constr:    0.0000

     total cpu time spent up to now is       55.5 secs

     total energy              =   -1343.62271394 Ry
     Harris-Foulkes estimate   =   -1346.18883863 Ry
     estimated scf accuracy    <      25.51126783 Ry

     total magnetization       =     3.80 Bohr mag/cell
     absolute magnetization    =     4.50 Bohr mag/cell

     iteration #  4     ecut=   150.00 Ry     beta=0.70
     Davidson diagonalization with overlap
     ethr =  4.15E-03,  avg # of iterations =  3.2

     negative rho (up, down):  0.000E+00 4.344E-04
 
     Magnetic moment per site:
     atom:    1    charge:   12.7744    magn:    2.2624    constr:    0.0000
     atom:    2    charge:   12.7744    magn:    2.2624    constr:    0.0000
     atom:    3    charge:   12.7744    magn:    2.2624    constr:    0.0000
     atom:    4    charge:   12.7285    magn:    1.8787    constr:    0.0000
     atom:    5    charge:    4.0533    magn:   -0.0486    constr:    0.0000

     total cpu time spent up to now is       71.5 secs

     total energy              =   -1345.02948724 Ry
     Harris-Foulkes estimate   =   -1345.10721014 Ry
     estimated scf accuracy    <       0.54852043 Ry

     total magnetization       =    10.75 Bohr mag/cell
     absolute magnetization    =    11.16 Bohr mag/cell

     iteration #  5     ecut=   150.00 Ry     beta=0.70
     Davidson diagonalization with overlap
     ethr =  7.95E-04,  avg # of iterations =  3.3

     negative rho (up, down):  0.000E+00 3.622E-04
 
     Magnetic moment per site:
     atom:    1    charge:   12.8333    magn:    2.1626    constr:    0.0000
     atom:    2    charge:   12.8333    magn:    2.1626    constr:    0.0000
     atom:    3    charge:   12.8333    magn:    2.1626    constr:    0.0000
     atom:    4    charge:   12.8041    magn:    2.0419    constr:    0.0000
     atom:    5    charge:    4.1101    magn:   -0.0267    constr:    0.0000

     total cpu time spent up to now is       88.9 secs

     total energy              =   -1345.11496356 Ry
     Harris-Foulkes estimate   =   -1345.20231532 Ry
     estimated scf accuracy    <       0.24130223 Ry

     total magnetization       =     9.59 Bohr mag/cell
     absolute magnetization    =     9.95 Bohr mag/cell

     iteration #  6     ecut=   150.00 Ry     beta=0.70
     Davidson diagonalization with overlap
     ethr =  3.50E-04,  avg # of iterations =  3.0

     negative rho (up, down):  0.000E+00 3.283E-04
 
     Magnetic moment per site:
     atom:    1    charge:   12.8271    magn:    2.1148    constr:    0.0000
     atom:    2    charge:   12.8271    magn:    2.1148    constr:    0.0000
     atom:    3    charge:   12.8271    magn:    2.1148    constr:    0.0000
     atom:    4    charge:   12.7930    magn:    2.3697    constr:    0.0000
     atom:    5    charge:    4.1120    magn:    0.0065    constr:    0.0000

     total cpu time spent up to now is      105.2 secs

     total energy              =   -1345.16177350 Ry
     Harris-Foulkes estimate   =   -1345.15754168 Ry
     estimated scf accuracy    <       0.02604311 Ry

     total magnetization       =     9.38 Bohr mag/cell
     absolute magnetization    =     9.72 Bohr mag/cell

     iteration #  7     ecut=   150.00 Ry     beta=0.70
     Davidson diagonalization with overlap
     ethr =  3.77E-05,  avg # of iterations =  1.7

     negative rho (up, down):  0.000E+00 3.404E-04
 
     Magnetic moment per site:
     atom:    1    charge:   12.8277    magn:    1.9571    constr:    0.0000
     atom:    2    charge:   12.8277    magn:    1.9571    constr:    0.0000
     atom:    3    charge:   12.8277    magn:    1.9571    constr:    0.0000
     atom:    4    charge:   12.7726    magn:    2.8104    constr:    0.0000
     atom:    5    charge:    4.1113    magn:    0.0392    constr:    0.0000

     total cpu time spent up to now is      118.4 secs

     total energy              =   -1345.16165406 Ry
     Harris-Foulkes estimate   =   -1345.16353667 Ry
     estimated scf accuracy    <       0.01804825 Ry

     total magnetization       =     9.38 Bohr mag/cell
     absolute magnetization    =     9.71 Bohr mag/cell

     iteration #  8     ecut=   150.00 Ry     beta=0.70
     Davidson diagonalization with overlap
     ethr =  2.62E-05,  avg # of iterations =  2.2

     negative rho (up, down):  0.000E+00 3.209E-04
 
     Magnetic moment per site:
     atom:    1    charge:   12.8309    magn:    1.8622    constr:    0.0000
     atom:    2    charge:   12.8309    magn:    1.8622    constr:    0.0000
     atom:    3    charge:   12.8309    magn:    1.8622    constr:    0.0000
     atom:    4    charge:   12.7751    magn:    2.7251    constr:    0.0000
     atom:    5    charge:    4.1092    magn:    0.0310    constr:    0.0000

     total cpu time spent up to now is      133.3 secs

     total energy              =   -1345.16668287 Ry
     Harris-Foulkes estimate   =   -1345.16570719 Ry
     estimated scf accuracy    <       0.00209343 Ry

     total magnetization       =     9.00 Bohr mag/cell
     absolute magnetization    =     9.35 Bohr mag/cell

     iteration #  9     ecut=   150.00 Ry     beta=0.70
     Davidson diagonalization with overlap
     ethr =  3.03E-06,  avg # of iterations =  2.1

     negative rho (up, down):  0.000E+00 3.663E-04
 
     Magnetic moment per site:
     atom:    1    charge:   12.8287    magn:    1.9948    constr:    0.0000
     atom:    2    charge:   12.8287    magn:    1.9948    constr:    0.0000
     atom:    3    charge:   12.8287    magn:    1.9948    constr:    0.0000
     atom:    4    charge:   12.7741    magn:    2.7578    constr:    0.0000
     atom:    5    charge:    4.1140    magn:    0.0387    constr:    0.0000

     total cpu time spent up to now is      147.4 secs

     total energy              =   -1345.16413266 Ry
     Harris-Foulkes estimate   =   -1345.16750763 Ry
     estimated scf accuracy    <       0.00202727 Ry

     total magnetization       =     8.59 Bohr mag/cell
     absolute magnetization    =     8.97 Bohr mag/cell

     iteration # 10     ecut=   150.00 Ry     beta=0.70
     Davidson diagonalization with overlap
     ethr =  2.94E-06,  avg # of iterations =  1.9

     negative rho (up, down):  0.000E+00 3.887E-04
 
     Magnetic moment per site:
     atom:    1    charge:   12.8272    magn:    2.0799    constr:    0.0000
     atom:    2    charge:   12.8272    magn:    2.0799    constr:    0.0000
     atom:    3    charge:   12.8272    magn:    2.0799    constr:    0.0000
     atom:    4    charge:   12.7751    magn:    2.7410    constr:    0.0000
     atom:    5    charge:    4.1175    magn:    0.0453    constr:    0.0000

     total cpu time spent up to now is      162.1 secs

     total energy              =   -1345.16389091 Ry
     Harris-Foulkes estimate   =   -1345.16557379 Ry
     estimated scf accuracy    <       0.00219969 Ry

     total magnetization       =     9.10 Bohr mag/cell
     absolute magnetization    =     9.44 Bohr mag/cell

     iteration # 11     ecut=   150.00 Ry     beta=0.70
     Davidson diagonalization with overlap
     ethr =  2.94E-06,  avg # of iterations =  1.7

     negative rho (up, down):  0.000E+00 2.407E-04
 
     Magnetic moment per site:
     atom:    1    charge:   12.8340    magn:    1.7220    constr:    0.0000
     atom:    2    charge:   12.8340    magn:    1.7220    constr:    0.0000
     atom:    3    charge:   12.8340    magn:    1.7220    constr:    0.0000
     atom:    4    charge:   12.7750    magn:    2.6964    constr:    0.0000
     atom:    5    charge:    4.1043    magn:    0.0141    constr:    0.0000

     total cpu time spent up to now is      175.8 secs

     total energy              =   -1345.16037030 Ry
     Harris-Foulkes estimate   =   -1345.16439592 Ry
     estimated scf accuracy    <       0.00284881 Ry

     total magnetization       =     9.33 Bohr mag/cell
     absolute magnetization    =     9.67 Bohr mag/cell

     iteration # 12     ecut=   150.00 Ry     beta=0.70
     Davidson diagonalization with overlap
     ethr =  2.94E-06,  avg # of iterations =  3.1

     negative rho (up, down):  0.000E+00 1.160E-04
 
     Magnetic moment per site:
     atom:    1    charge:   12.8413    magn:    1.3156    constr:    0.0000
     atom:    2    charge:   12.8413    magn:    1.3156    constr:    0.0000
     atom:    3    charge:   12.8413    magn:    1.3156    constr:    0.0000
     atom:    4    charge:   12.7742    magn:    2.6500    constr:    0.0000
     atom:    5    charge:    4.0881    magn:   -0.0228    constr:    0.0000

     total cpu time spent up to now is      193.3 secs

     total energy              =   -1345.16102760 Ry
     Harris-Foulkes estimate   =   -1345.16967212 Ry
     estimated scf accuracy    <       0.00120104 Ry

     total magnetization       =     8.19 Bohr mag/cell
     absolute magnetization    =     8.58 Bohr mag/cell

     iteration # 13     ecut=   150.00 Ry     beta=0.70
     Davidson diagonalization with overlap
     ethr =  1.74E-06,  avg # of iterations =  3.4

     negative rho (up, down):  0.000E+00 1.152E-04
 
     Magnetic moment per site:
     atom:    1    charge:   12.8435    magn:    1.2147    constr:    0.0000
     atom:    2    charge:   12.8435    magn:    1.2147    constr:    0.0000
     atom:    3    charge:   12.8435    magn:    1.2147    constr:    0.0000
     atom:    4    charge:   12.7742    magn:    2.6458    constr:    0.0000
     atom:    5    charge:    4.0838    magn:   -0.0327    constr:    0.0000

     total cpu time spent up to now is      213.7 secs

     total energy              =   -1345.16893378 Ry
     Harris-Foulkes estimate   =   -1345.17031065 Ry
     estimated scf accuracy    <       0.00058483 Ry

     total magnetization       =     7.22 Bohr mag/cell
     absolute magnetization    =     7.60 Bohr mag/cell

     iteration # 14     ecut=   150.00 Ry     beta=0.70
     Davidson diagonalization with overlap
     ethr =  8.48E-07,  avg # of iterations =  2.6

     negative rho (up, down):  0.000E+00 1.162E-04
 
     Magnetic moment per site:
     atom:    1    charge:   12.8423    magn:    1.2901    constr:    0.0000
     atom:    2    charge:   12.8423    magn:    1.2901    constr:    0.0000
     atom:    3    charge:   12.8423    magn:    1.2901    constr:    0.0000
     atom:    4    charge:   12.7743    magn:    2.6536    constr:    0.0000
     atom:    5    charge:    4.0858    magn:   -0.0273    constr:    0.0000

     total cpu time spent up to now is      228.7 secs

     total energy              =   -1345.16984017 Ry
     Harris-Foulkes estimate   =   -1345.16956294 Ry
     estimated scf accuracy    <       0.00127556 Ry

     total magnetization       =     6.98 Bohr mag/cell
     absolute magnetization    =     7.35 Bohr mag/cell

     iteration # 15     ecut=   150.00 Ry     beta=0.70
     Davidson diagonalization with overlap
     ethr =  8.48E-07,  avg # of iterations =  2.1

     negative rho (up, down):  0.000E+00 1.165E-04
 
     Magnetic moment per site:
     atom:    1    charge:   12.8428    magn:    1.2859    constr:    0.0000
     atom:    2    charge:   12.8428    magn:    1.2859    constr:    0.0000
     atom:    3    charge:   12.8428    magn:    1.2859    constr:    0.0000
     atom:    4    charge:   12.7748    magn:    2.6622    constr:    0.0000
     atom:    5    charge:    4.0849    magn:   -0.0320    constr:    0.0000

     total cpu time spent up to now is      243.0 secs

     total energy              =   -1345.17026033 Ry
     Harris-Foulkes estimate   =   -1345.17020131 Ry
     estimated scf accuracy    <       0.00075012 Ry

     total magnetization       =     7.17 Bohr mag/cell
     absolute magnetization    =     7.54 Bohr mag/cell

     iteration # 16     ecut=   150.00 Ry     beta=0.70
     Davidson diagonalization with overlap
     ethr =  8.48E-07,  avg # of iterations =  1.0

     negative rho (up, down):  0.000E+00 1.511E-04
 
     Magnetic moment per site:
     atom:    1    charge:   12.8388    magn:    1.4921    constr:    0.0000
     atom:    2    charge:   12.8388    magn:    1.4921    constr:    0.0000
     atom:    3    charge:   12.8388    magn:    1.4921    constr:    0.0000
     atom:    4    charge:   12.7743    magn:    2.6887    constr:    0.0000
     atom:    5    charge:    4.0905    magn:   -0.0196    constr:    0.0000

     total cpu time spent up to now is      256.4 secs

     total energy              =   -1345.16798468 Ry
     Harris-Foulkes estimate   =   -1345.17027451 Ry
     estimated scf accuracy    <       0.00077430 Ry

     total magnetization       =     7.17 Bohr mag/cell
     absolute magnetization    =     7.53 Bohr mag/cell

     iteration # 17     ecut=   150.00 Ry     beta=0.70
     Davidson diagonalization with overlap
     ethr =  8.48E-07,  avg # of iterations =  3.1

     negative rho (up, down):  0.000E+00 1.527E-04
 
     Magnetic moment per site:
     atom:    1    charge:   12.8385    magn:    1.5028    constr:    0.0000
     atom:    2    charge:   12.8385    magn:    1.5028    constr:    0.0000
     atom:    3    charge:   12.8385    magn:    1.5028    constr:    0.0000
     atom:    4    charge:   12.7743    magn:    2.6852    constr:    0.0000
     atom:    5    charge:    4.0913    magn:   -0.0174    constr:    0.0000

     total cpu time spent up to now is      274.6 secs

     total energy              =   -1345.17073529 Ry
     Harris-Foulkes estimate   =   -1345.17075592 Ry
     estimated scf accuracy    <       0.00087844 Ry

     total magnetization       =     7.72 Bohr mag/cell
     absolute magnetization    =     8.07 Bohr mag/cell

     iteration # 18     ecut=   150.00 Ry     beta=0.70
     Davidson diagonalization with overlap
     ethr =  8.48E-07,  avg # of iterations =  1.0

     negative rho (up, down):  0.000E+00 1.622E-04
 
     Magnetic moment per site:
     atom:    1    charge:   12.8363    magn:    1.5515    constr:    0.0000
     atom:    2    charge:   12.8363    magn:    1.5515    constr:    0.0000
     atom:    3    charge:   12.8363    magn:    1.5515    constr:    0.0000
     atom:    4    charge:   12.7738    magn:    2.6669    constr:    0.0000
     atom:    5    charge:    4.0959    magn:   -0.0039    constr:    0.0000

     total cpu time spent up to now is      288.3 secs

     total energy              =   -1345.17050748 Ry
     Harris-Foulkes estimate   =   -1345.17074415 Ry
     estimated scf accuracy    <       0.00068642 Ry

     total magnetization       =     7.75 Bohr mag/cell
     absolute magnetization    =     8.09 Bohr mag/cell

     iteration # 19     ecut=   150.00 Ry     beta=0.70
     Davidson diagonalization with overlap
     ethr =  8.48E-07,  avg # of iterations =  2.0

     negative rho (up, down):  0.000E+00 1.534E-04
 
     Magnetic moment per site:
     atom:    1    charge:   12.8368    magn:    1.5269    constr:    0.0000
     atom:    2    charge:   12.8368    magn:    1.5269    constr:    0.0000
     atom:    3    charge:   12.8368    magn:    1.5269    constr:    0.0000
     atom:    4    charge:   12.7738    magn:    2.6654    constr:    0.0000
     atom:    5    charge:    4.0950    magn:   -0.0057    constr:    0.0000

     total cpu time spent up to now is      302.1 secs

     total energy              =   -1345.17073218 Ry
     Harris-Foulkes estimate   =   -1345.17070182 Ry
     estimated scf accuracy    <       0.00012435 Ry

     total magnetization       =     7.85 Bohr mag/cell
     absolute magnetization    =     8.19 Bohr mag/cell

     iteration # 20     ecut=   150.00 Ry     beta=0.70
     Davidson diagonalization with overlap
     ethr =  1.80E-07,  avg # of iterations =  1.7

     negative rho (up, down):  0.000E+00 1.380E-04
 
     Magnetic moment per site:
     atom:    1    charge:   12.8371    magn:    1.4839    constr:    0.0000
     atom:    2    charge:   12.8371    magn:    1.4839    constr:    0.0000
     atom:    3    charge:   12.8371    magn:    1.4839    constr:    0.0000
     atom:    4    charge:   12.7735    magn:    2.6528    constr:    0.0000
     atom:    5    charge:    4.0947    magn:   -0.0040    constr:    0.0000

     total cpu time spent up to now is      316.3 secs

     total energy              =   -1345.17068163 Ry
     Harris-Foulkes estimate   =   -1345.17076973 Ry
     estimated scf accuracy    <       0.00011083 Ry

     total magnetization       =     7.79 Bohr mag/cell
     absolute magnetization    =     8.14 Bohr mag/cell

     iteration # 21     ecut=   150.00 Ry     beta=0.70
     Davidson diagonalization with overlap
     ethr =  1.61E-07,  avg # of iterations =  2.9

     negative rho (up, down):  0.000E+00 1.377E-04
 
     Magnetic moment per site:
     atom:    1    charge:   12.8372    magn:    1.4830    constr:    0.0000
     atom:    2    charge:   12.8372    magn:    1.4830    constr:    0.0000
     atom:    3    charge:   12.8372    magn:    1.4830    constr:    0.0000
     atom:    4    charge:   12.7736    magn:    2.6537    constr:    0.0000
     atom:    5    charge:    4.0947    magn:   -0.0044    constr:    0.0000

     total cpu time spent up to now is      332.1 secs

     total energy              =   -1345.17082035 Ry
     Harris-Foulkes estimate   =   -1345.17082043 Ry
     estimated scf accuracy    <       0.00000463 Ry

     total magnetization       =     7.67 Bohr mag/cell
     absolute magnetization    =     8.02 Bohr mag/cell

     iteration # 22     ecut=   150.00 Ry     beta=0.70
     Davidson diagonalization with overlap
     ethr =  6.71E-09,  avg # of iterations =  2.3

     negative rho (up, down):  0.000E+00 1.381E-04
 
     Magnetic moment per site:
     atom:    1    charge:   12.8372    magn:    1.4835    constr:    0.0000
     atom:    2    charge:   12.8372    magn:    1.4835    constr:    0.0000
     atom:    3    charge:   12.8372    magn:    1.4835    constr:    0.0000
     atom:    4    charge:   12.7737    magn:    2.6541    constr:    0.0000
     atom:    5    charge:    4.0947    magn:   -0.0045    constr:    0.0000

     total cpu time spent up to now is      346.9 secs

     total energy              =   -1345.17082070 Ry
     Harris-Foulkes estimate   =   -1345.17082086 Ry
     estimated scf accuracy    <       0.00000501 Ry

     total magnetization       =     7.67 Bohr mag/cell
     absolute magnetization    =     8.02 Bohr mag/cell

     iteration # 23     ecut=   150.00 Ry     beta=0.70
     Davidson diagonalization with overlap
     ethr =  6.71E-09,  avg # of iterations =  1.1

     negative rho (up, down):  0.000E+00 1.386E-04
 
     Magnetic moment per site:
     atom:    1    charge:   12.8373    magn:    1.4844    constr:    0.0000
     atom:    2    charge:   12.8373    magn:    1.4844    constr:    0.0000
     atom:    3    charge:   12.8373    magn:    1.4844    constr:    0.0000
     atom:    4    charge:   12.7737    magn:    2.6543    constr:    0.0000
     atom:    5    charge:    4.0947    magn:   -0.0043    constr:    0.0000

     total cpu time spent up to now is      360.1 secs

     total energy              =   -1345.17082093 Ry
     Harris-Foulkes estimate   =   -1345.17082098 Ry
     estimated scf accuracy    <       0.00000115 Ry

     total magnetization       =     7.67 Bohr mag/cell
     absolute magnetization    =     8.02 Bohr mag/cell

     iteration # 24     ecut=   150.00 Ry     beta=0.70
     Davidson diagonalization with overlap
     ethr =  1.66E-09,  avg # of iterations =  2.5

     negative rho (up, down):  0.000E+00 1.388E-04
 
     Magnetic moment per site:
     atom:    1    charge:   12.8373    magn:    1.4857    constr:    0.0000
     atom:    2    charge:   12.8373    magn:    1.4857    constr:    0.0000
     atom:    3    charge:   12.8373    magn:    1.4857    constr:    0.0000
     atom:    4    charge:   12.7737    magn:    2.6544    constr:    0.0000
     atom:    5    charge:    4.0947    magn:   -0.0039    constr:    0.0000

     total cpu time spent up to now is      374.9 secs

     total energy              =   -1345.17082126 Ry
     Harris-Foulkes estimate   =   -1345.17082125 Ry
     estimated scf accuracy    <       0.00000007 Ry

     total magnetization       =     7.67 Bohr mag/cell
     absolute magnetization    =     8.02 Bohr mag/cell

     iteration # 25     ecut=   150.00 Ry     beta=0.70
     Davidson diagonalization with overlap
     ethr =  9.88E-11,  avg # of iterations =  2.7

     negative rho (up, down):  0.000E+00 1.389E-04
 
     Magnetic moment per site:
     atom:    1    charge:   12.8373    magn:    1.4858    constr:    0.0000
     atom:    2    charge:   12.8373    magn:    1.4858    constr:    0.0000
     atom:    3    charge:   12.8373    magn:    1.4858    constr:    0.0000
     atom:    4    charge:   12.7737    magn:    2.6542    constr:    0.0000
     atom:    5    charge:    4.0947    magn:   -0.0039    constr:    0.0000

     total cpu time spent up to now is      391.4 secs

     total energy              =   -1345.17082137 Ry
     Harris-Foulkes estimate   =   -1345.17082139 Ry
     estimated scf accuracy    <       0.00000019 Ry

     total magnetization       =     7.68 Bohr mag/cell
     absolute magnetization    =     8.03 Bohr mag/cell

     iteration # 26     ecut=   150.00 Ry     beta=0.70
     Davidson diagonalization with overlap
     ethr =  9.88E-11,  avg # of iterations =  1.6

     negative rho (up, down):  0.000E+00 1.391E-04
 
     Magnetic moment per site:
     atom:    1    charge:   12.8373    magn:    1.4865    constr:    0.0000
     atom:    2    charge:   12.8373    magn:    1.4865    constr:    0.0000
     atom:    3    charge:   12.8373    magn:    1.4865    constr:    0.0000
     atom:    4    charge:   12.7738    magn:    2.6541    constr:    0.0000
     atom:    5    charge:    4.0948    magn:   -0.0037    constr:    0.0000

     total cpu time spent up to now is      404.6 secs

     total energy              =   -1345.17082138 Ry
     Harris-Foulkes estimate   =   -1345.17082138 Ry
     estimated scf accuracy    <       0.00000005 Ry

     total magnetization       =     7.68 Bohr mag/cell
     absolute magnetization    =     8.03 Bohr mag/cell

     iteration # 27     ecut=   150.00 Ry     beta=0.70
     Davidson diagonalization with overlap
     ethr =  7.68E-11,  avg # of iterations =  2.2

     negative rho (up, down):  0.000E+00 1.393E-04
 
     Magnetic moment per site:
     atom:    1    charge:   12.8373    magn:    1.4872    constr:    0.0000
     atom:    2    charge:   12.8373    magn:    1.4872    constr:    0.0000
     atom:    3    charge:   12.8373    magn:    1.4872    constr:    0.0000
     atom:    4    charge:   12.7738    magn:    2.6539    constr:    0.0000
     atom:    5    charge:    4.0948    magn:   -0.0036    constr:    0.0000

     total cpu time spent up to now is      420.5 secs

     total energy              =   -1345.17082138 Ry
     Harris-Foulkes estimate   =   -1345.17082140 Ry
     estimated scf accuracy    <       0.00000002 Ry

     total magnetization       =     7.68 Bohr mag/cell
     absolute magnetization    =     8.03 Bohr mag/cell

     iteration # 28     ecut=   150.00 Ry     beta=0.70
     Davidson diagonalization with overlap
     ethr =  2.49E-11,  avg # of iterations =  3.1

     negative rho (up, down):  0.000E+00 1.393E-04
 
     Magnetic moment per site:
     atom:    1    charge:   12.8373    magn:    1.4873    constr:    0.0000
     atom:    2    charge:   12.8373    magn:    1.4873    constr:    0.0000
     atom:    3    charge:   12.8373    magn:    1.4873    constr:    0.0000
     atom:    4    charge:   12.7738    magn:    2.6538    constr:    0.0000
     atom:    5    charge:    4.0948    magn:   -0.0036    constr:    0.0000

     total cpu time spent up to now is      436.8 secs

     End of self-consistent calculation

 ------ SPIN UP ------------


          k = 0.0000 0.0000 0.0000 ( 10395 PWs)   bands (ev):

   -69.9379 -69.2599 -69.2055 -69.2055 -35.9988 -35.9988 -35.9988 -35.6161
   -35.6161 -35.6161 -35.1589 -35.1589 -35.1589 -35.1523 -35.1523 -35.1523
     0.3454  11.4281  13.3302  13.3302  13.3302  13.8395  13.8395  14.1049
    14.1049  14.1049  16.0921  16.0921  16.0921  17.1984  17.1984  17.8461
    17.8461  18.3983  18.3983  18.3983  18.4658  18.4658  18.4658  18.4675
    21.8875  23.7552

          k = 0.0000 0.0000 0.1111 ( 10391 PWs)   bands (ev):

   -69.9378 -69.2585 -69.2070 -69.2055 -35.9978 -35.9978 -35.9974 -35.6149
   -35.6149 -35.6138 -35.1599 -35.1599 -35.1592 -35.1571 -35.1535 -35.1535
     0.4151  11.4854  12.9271  13.1103  13.1103  13.9189  13.9305  14.1573
    14.3440  14.3440  16.0276  16.1461  16.1461  17.2215  17.2573  17.8146
    17.8701  18.3138  18.3138  18.3982  18.3982  18.3985  18.4065  18.4647
    21.9635  23.2362

          k = 0.0000 0.0000 0.2222 ( 10379 PWs)   bands (ev):

   -69.9375 -69.2546 -69.2112 -69.2055 -35.9953 -35.9953 -35.9940 -35.6119
   -35.6119 -35.6078 -35.1697 -35.1628 -35.1628 -35.1599 -35.1563 -35.1563
     0.6001  11.3377  12.5042  12.7671  12.7671  14.0811  14.1353  14.3089
    14.7508  14.7508  15.8448  16.2721  16.2721  17.1943  17.2858  17.7244
    17.7687  17.9542  17.9542  18.2394  18.3988  18.4016  18.4016  18.4620
    22.1774  22.5168

          k = 0.0000 0.0000 0.3333 ( 10383 PWs)   bands (ev):

   -69.9372 -69.2489 -69.2172 -69.2055 -35.9925 -35.9925 -35.9901 -35.6083
   -35.6083 -35.6004 -35.1846 -35.1665 -35.1665 -35.1608 -35.1592 -35.1592
     0.8279  10.6696  12.4972  12.4972  12.8459  14.1976  14.4173  14.5422
    15.1426  15.1426  15.5760  16.3645  16.3645  16.9836  17.3213  17.3617
    17.5815  17.5815  17.6125  18.0172  18.3993  18.4146  18.4146  18.4591
    22.0441  22.5715

          k = 0.0000 0.0000 0.4444 ( 10403 PWs)   bands (ev):

   -69.9370 -69.2436 -69.2227 -69.2055 -35.9906 -35.9906 -35.9876 -35.6060
   -35.6060 -35.5950 -35.1948 -35.1691 -35.1691 -35.1613 -35.1609 -35.1609
     0.9887  10.1828  12.3529  12.3529  13.4006  14.1247  14.6316  14.8078
    15.2872  15.4348  15.4348  16.3332  16.3332  16.7318  16.9439  17.3462
    17.3744  17.3744  17.6400  17.8045  18.3995  18.4298  18.4298  18.4575
    21.9109  22.7893

          k = 0.0000 0.1111 0.1111 ( 10387 PWs)   bands (ev):

   -69.9377 -69.2572 -69.2077 -69.2063 -35.9982 -35.9969 -35.9952 -35.6260
   -35.6137 -35.5995 -35.1702 -35.1609 -35.1605 -35.1572 -35.1548 -35.1484
     0.4848  11.5393  12.6985  12.8567  12.9536  13.9961  14.0039  14.2124
    14.4870  14.5135  16.0039  16.1627  16.1926  17.2488  17.2728  17.7260
    17.7833  18.2261  18.2639  18.3181  18.3245  18.4101  18.4791  18.5426
    22.0241  23.4380

          k = 0.0000 0.1111 0.2222 ( 10387 PWs)   bands (ev):

   -69.9375 -69.2533 -69.2115 -69.2066 -35.9966 -35.9944 -35.9919 -35.6335
   -35.6105 -35.5836 -35.1856 -35.1654 -35.1636 -35.1584 -35.1578 -35.1441
     0.6701  11.3588  12.2604  12.6629  12.6764  14.1571  14.2066  14.3624
    14.8143  14.8589  15.8417  16.2813  16.2889  17.1598  17.3235  17.4381
    17.5843  17.9114  18.1400  18.1984  18.2420  18.3838  18.5584  18.6824
    22.2027  22.6701

          k = 0.0000 0.1111 0.3333 ( 10377 PWs)   bands (ev):

   -69.9372 -69.2477 -69.2173 -69.2066 -35.9939 -35.9917 -35.9893 -35.6373
   -35.6068 -35.5695 -35.2008 -35.1704 -35.1672 -35.1608 -35.1603 -35.1419
     0.8985  10.6613  12.1383  12.4159  12.9459  14.2826  14.4859  14.5913
    15.1751  15.2146  15.5803  16.2916  16.3934  16.9294  17.0977  17.2659
    17.4904  17.5576  17.8565  18.0735  18.1797  18.3774  18.6300  18.6759
    22.2617  22.4504

          k = 0.0000 0.1111 0.4444 ( 10380 PWs)   bands (ev):

   -69.9370 -69.2424 -69.2227 -69.2066 -35.9914 -35.9899 -35.9883 -35.6386
   -35.6044 -35.5612 -35.2106 -35.1736 -35.1699 -35.1625 -35.1617 -35.1410
     1.0597  10.1712  12.0375  12.2805  13.4693  14.2193  14.7010  14.8576
    15.2906  15.4588  15.4815  16.1375  16.3911  16.6628  16.8641  17.2556
    17.3556  17.4657  17.7081  17.8996  18.1435  18.3754  18.6540  18.6759
    22.1430  22.6123

          k = 0.0000 0.2222 0.2222 ( 10395 PWs)   bands (ev):

   -69.9372 -69.2497 -69.2132 -69.2086 -35.9969 -35.9922 -35.9898 -35.6521
   -35.6069 -35.5581 -35.2069 -35.1680 -35.1659 -35.1614 -35.1601 -35.1305
     0.8564  11.2947  11.5674  12.4407  12.7895  14.3576  14.3836  14.5050
    15.0142  15.1103  15.7598  16.2749  16.3628  17.0227  17.0278  17.3104
    17.4587  17.7425  18.0345  18.0886  18.2579  18.3351  18.7087  18.9945
    22.1160  22.9985

          k = 0.0000 0.2222 0.3333 ( 10380 PWs)   bands (ev):

   -69.9370 -69.2444 -69.2177 -69.2095 -35.9955 -35.9897 -35.9891 -35.6645
   -35.6028 -35.5374 -35.2250 -35.1708 -35.1692 -35.1649 -35.1624 -35.1215
     1.0863  10.6284  11.3676  12.2331  13.1803  14.5164  14.6612  14.7163
    15.2788  15.3906  15.5580  16.0662  16.4959  16.7578  16.8086  17.1021
    17.4756  17.6359  17.8030  17.9580  18.1969  18.3522  18.8359  19.0294
    21.9457  22.8235

          k = 0.0000 0.2222 0.4444 ( 10377 PWs)   bands (ev):

   -69.9369 -69.2392 -69.2228 -69.2098 -35.9932 -35.9901 -35.9880 -35.6706
   -35.6001 -35.5256 -35.2354 -35.1728 -35.1718 -35.1669 -35.1639 -35.1170
     1.2490  10.1368  11.3031  12.1145  13.6798  14.4692  14.8909  14.9679
    15.2994  15.4958  15.5996  15.8225  16.5517  16.5535  16.6114  17.0967
    17.2980  17.5289  17.8750  17.8800  18.1778  18.2116  18.9126  18.9631
    21.9128  22.7457

          k = 0.0000 0.3333 0.3333 ( 10385 PWs)   bands (ev):

   -69.9368 -69.2394 -69.2194 -69.2130 -35.9959 -35.9904 -35.9874 -35.6839
   -35.5983 -35.5121 -35.2445 -35.1717 -35.1708 -35.1695 -35.1649 -35.1066
     1.3187  10.5581  10.5958  12.0537  13.5742  14.8385  14.8435  14.8883
    15.4140  15.4602  15.5951  15.7406  16.5552  16.6482  16.6579  16.8988
    17.3283  17.6094  17.7584  17.9055  18.0439  18.5481  19.0044  19.1747
    21.2661  23.3556

          k = 0.0000 0.3333 0.4444 ( 10398 PWs)   bands (ev):

   -69.9367 -69.2344 -69.2230 -69.2145 -35.9949 -35.9926 -35.9859 -35.6940
   -35.5952 -35.4980 -35.2554 -35.1739 -35.1718 -35.1708 -35.1666 -35.0990
     1.4837  10.0899  10.5350  11.9483  14.0224  14.7993  15.0850  15.1284
    15.2953  15.5100  15.5583  15.7466  16.4018  16.4741  16.7779  16.8318
    17.2034  17.4000  17.6210  17.9742  18.1740  18.5811  19.1030  19.1300
    20.9080  23.4488

          k = 0.0000 0.4444 0.4444 ( 10386 PWs)   bands (ev):

   -69.9366 -69.2288 -69.2234 -69.2197 -35.9955 -35.9946 -35.9845 -35.7063
   -35.5919 -35.4828 -35.2663 -35.1754 -35.1751 -35.1695 -35.1685 -35.0894
     1.6506  10.0557  10.0562  11.8496  14.3682  15.0248  15.1859  15.2541
    15.2590  15.4092  15.5746  15.8592  16.3140  16.3958  16.5770  16.9871
    17.1138  17.2349  17.4098  17.8579  18.3842  18.9445  19.1752  19.2131
    20.1305  23.9983

          k = 0.1111 0.1111 0.1111 ( 10410 PWs)   bands (ev):

   -69.9376 -69.2558 -69.2077 -69.2077 -35.9975 -35.9975 -35.9929 -35.6381
   -35.5984 -35.5984 -35.1733 -35.1695 -35.1695 -35.1505 -35.1487 -35.1487
     0.5547  11.5893  12.5636  12.5636  12.8354  14.0719  14.0719  14.3896
    14.3896  14.7341  15.9886  16.2023  16.2023  17.2669  17.2669  17.6644
    17.6644  17.9912  18.1234  18.3443  18.3443  18.4199  18.6411  18.6411
    22.0743  23.5625

          k = 0.1111 0.1111 0.2222 ( 10389 PWs)   bands (ev):

   -69.9374 -69.2521 -69.2117 -69.2077 -35.9965 -35.9957 -35.9897 -35.6503
   -35.5955 -35.5780 -35.1899 -35.1799 -35.1712 -35.1508 -35.1458 -35.1435
     0.7403  11.3709  12.1431  12.2977  12.7588  14.2325  14.2776  14.4625
    14.7621  15.0133  15.8442  16.2848  16.2953  17.1763  17.2943  17.3841
    17.4079  17.7636  17.9271  18.2176  18.3453  18.3565  18.8021  18.8329
    22.2208  22.8348

          k = 0.1111 0.1111 0.3333 ( 10386 PWs)   bands (ev):

   -69.9371 -69.2466 -69.2174 -69.2076 -35.9937 -35.9936 -35.9878 -35.6578
   -35.5921 -35.5606 -35.2061 -35.1886 -35.1723 -35.1525 -35.1465 -35.1394
     0.9693  10.6461  12.0639  12.0767  13.0383  14.3638  14.5548  14.6649
    15.1711  15.2804  15.5908  16.2780  16.3443  16.9169  17.0710  17.1118
    17.4311  17.6064  17.7043  18.0898  18.2503  18.3341  18.6812  18.9925
    22.4189  22.4434

          k = 0.1111 0.1111 0.4444 ( 10374 PWs)   bands (ev):

   -69.9369 -69.2414 -69.2227 -69.2076 -35.9923 -35.9904 -35.9880 -35.6611
   -35.5899 -35.5504 -35.2161 -35.1936 -35.1729 -35.1537 -35.1480 -35.1374
     1.1311  10.1542  11.9339  12.0076  13.5365  14.3074  14.7710  14.9231
    15.3010  15.4550  15.5305  16.0757  16.2781  16.6259  16.9675  17.0972
    17.3342  17.4992  17.7093  17.9303  18.1845  18.3239  18.5240  19.0840
    22.3369  22.5623

          k = 0.1111 0.2222 0.2222 ( 10385 PWs)   bands (ev):

   -69.9372 -69.2486 -69.2132 -69.2098 -35.9969 -35.9948 -35.9874 -35.6705
   -35.5863 -35.5572 -35.2080 -35.1850 -35.1815 -35.1463 -35.1454 -35.1307
     0.9271  11.2969  11.4889  12.0698  12.8956  14.4281  14.4566  14.6312
    14.9390  15.2088  15.7702  16.2697  16.3402  17.0318  17.0919  17.2143
    17.3959  17.5442  17.7223  18.2481  18.2499  18.3218  19.0778  19.1106
    22.1896  23.1065

          k = 0.1111 0.2222 0.3333 ( 10385 PWs)   bands (ev):

   -69.9370 -69.2434 -69.2178 -69.2105 -35.9958 -35.9933 -35.9867 -35.6847
   -35.5818 -35.5358 -35.2253 -35.1936 -35.1836 -35.1473 -35.1441 -35.1215
     1.1579  10.5980  11.3111  11.9146  13.2657  14.5775  14.7281  14.8336
    15.2638  15.3766  15.5837  16.1023  16.3721  16.7652  16.9126  17.0315
    17.4420  17.4783  17.6147  18.1521  18.1977  18.2545  18.9968  19.3339
    22.0570  22.8862

          k = 0.1111 0.2222 0.4444 ( 10386 PWs)   bands (ev):

   -69.9368 -69.2384 -69.2228 -69.2106 -35.9942 -35.9920 -35.9875 -35.6919
   -35.5793 -35.5234 -35.2353 -35.1992 -35.1841 -35.1481 -35.1441 -35.1169
     1.3213  10.1072  11.2411  11.8216  13.7358  14.5292  14.9595  15.0710
    15.3034  15.4786  15.6038  15.8649  16.2990  16.5434  16.8770  16.9676
    17.3025  17.4481  17.7965  18.0504  18.1010  18.2334  18.7430  19.4754
    22.0152  22.8357

          k = 0.1111 0.3333 0.3333 ( 10380 PWs)   bands (ev):

   -69.9368 -69.2387 -69.2194 -69.2137 -35.9966 -35.9933 -35.9867 -35.7049
   -35.5764 -35.5116 -35.2435 -35.1951 -35.1923 -35.1455 -35.1440 -35.1067
     1.3915  10.5241  10.5391  11.7567  13.6360  14.8225  14.9039  15.0687
    15.3298  15.4720  15.5695  15.9049  16.3667  16.6362  16.7526  16.9585
    17.3278  17.3354  17.7955  18.0115  18.1088  18.3396  19.2236  19.4680
    21.3618  23.2564

          k = 0.1111 0.3333 0.4444 ( 10373 PWs)   bands (ev):

   -69.9367 -69.2338 -69.2230 -69.2151 -35.9960 -35.9942 -35.9871 -35.7155
   -35.5734 -35.4976 -35.2537 -35.1994 -35.1935 -35.1452 -35.1440 -35.0990
     1.5576  10.0487  10.4832  11.6622  14.0410  14.7950  15.0910  15.2863
    15.2944  15.5093  15.5623  15.9175  16.2897  16.4461  16.7282  16.9209
    17.2029  17.3108  17.8568  17.9766  18.0305  18.4890  19.0171  19.6594
    20.9540  23.3825

          k = 0.1111 0.4444 0.4444 ( 10375 PWs)   bands (ev):

   -69.9366 -69.2285 -69.2234 -69.2199 -35.9967 -35.9960 -35.9869 -35.7281
   -35.5702 -35.4827 -35.2640 -35.1993 -35.1989 -35.1443 -35.1440 -35.0894
     1.7258  10.0073  10.0092  11.5674  14.3231  14.9817  15.0453  15.2045
    15.5461  15.5518  15.6300  16.0536  16.2559  16.3618  16.5045  16.9239
    17.1741  17.2216  17.6747  17.9345  18.0856  18.8780  19.1705  19.7002
    20.1197  23.7364

          k = 0.2222 0.2222 0.2222 ( 10402 PWs)   bands (ev):

   -69.9370 -69.2454 -69.2131 -69.2131 -35.9968 -35.9968 -35.9856 -35.6962
   -35.5549 -35.5549 -35.2155 -35.1982 -35.1982 -35.1333 -35.1333 -35.1292
     1.1155  11.2708  11.3111  11.3111  13.1133  14.6223  14.6223  14.9419
    14.9419  15.3041  15.7316  16.2794  16.2794  16.9692  16.9692  17.2824
    17.2824  17.2922  17.4273  18.2285  18.2285  18.3818  19.4148  19.4148
    22.2836  23.0622

          k = 0.2222 0.2222 0.3333 ( 10384 PWs)   bands (ev):

   -69.9368 -69.2406 -69.2180 -69.2131 -35.9967 -35.9967 -35.9863 -35.7153
   -35.5522 -35.5288 -35.2295 -35.2111 -35.2008 -35.1332 -35.1255 -35.1197
     1.3489  10.5167  11.1352  11.2353  13.4788  14.7338  14.8919  15.1006
    15.2917  15.2956  15.6688  16.1479  16.2341  16.7242  16.7862  17.1817
    17.1847  17.3773  17.5207  18.1616  18.2198  18.3165  19.2418  19.7642
    22.2488  22.6937

          k = 0.2222 0.2222 0.4444 ( 10365 PWs)   bands (ev):

   -69.9367 -69.2358 -69.2229 -69.2131 -35.9967 -35.9950 -35.9884 -35.7253
   -35.5504 -35.5142 -35.2385 -35.2182 -35.2011 -35.1338 -35.1221 -35.1142
     1.5147  10.0323  11.0316  11.1935  13.8847  14.6646  15.1473  15.1480
    15.4031  15.4925  15.6116  15.9867  16.1836  16.4974  16.7714  17.0065
    17.1468  17.5600  17.7233  18.0967  18.1967  18.2423  18.8109  20.0145
    22.2603  22.3756

          k = 0.2222 0.3333 0.3333 ( 10369 PWs)   bands (ev):

   -69.9367 -69.2365 -69.2193 -69.2160 -35.9985 -35.9976 -35.9881 -35.7392
   -35.5396 -35.5104 -35.2414 -35.2163 -35.2129 -35.1244 -35.1229 -35.1069
     1.5863  10.4046  10.4370  11.0620  13.7833  14.8927  14.9972  15.1536
    15.4037  15.4571  15.8015  16.1025  16.2132  16.6138  16.6341  16.9618
    17.3039  17.3490  17.6461  18.1530  18.2324  18.2822  19.4026  19.9184
    21.6313  22.6892

          k = 0.2222 0.3333 0.4444 ( 10369 PWs)   bands (ev):

   -69.9366 -69.2321 -69.2230 -69.2168 -35.9988 -35.9977 -35.9906 -35.7519
   -35.5363 -35.4962 -35.2498 -35.2222 -35.2143 -35.1239 -35.1190 -35.0990
     1.7555   9.9477  10.3577  10.9826  14.0723  14.8048  15.0272  15.2236
    15.4900  15.7147  15.8751  16.1618  16.1877  16.4233  16.6202  16.8037
    17.2859  17.5122  17.7755  18.1064  18.1696  18.3882  19.0267  20.2483
    21.0539  22.6440

          k = 0.2222 0.4444 0.4444 ( 10366 PWs)   bands (ev):

   -69.9365 -69.2277 -69.2234 -69.2207 -35.9997 -35.9994 -35.9927 -35.7663
   -35.5319 -35.4825 -35.2581 -35.2219 -35.2213 -35.1191 -35.1188 -35.0894
     1.9277   9.8897   9.8970  10.8923  14.2095  14.8978  14.9497  15.0890
    15.6722  16.0014  16.1137  16.2022  16.2634  16.3987  16.5121  16.6594
    17.4068  17.4416  17.8214  17.9830  18.1013  18.7646  19.1471  19.9408
    20.4397  22.9021

          k = 0.3333 0.3333 0.3333 ( 10357 PWs)   bands (ev):

   -69.9366 -69.2331 -69.2193 -69.2193 -36.0005 -36.0005 -35.9917 -35.7669
   -35.5090 -35.5090 -35.2425 -35.2282 -35.2282 -35.1093 -35.1093 -35.1049
     1.8293  10.2646  10.2646  10.4018  13.9570  14.9419  14.9945  14.9945
    15.6693  15.6693  16.1352  16.2179  16.2179  16.5752  16.5752  16.7366
    17.4735  17.5585  17.5585  18.2040  18.2040  18.3423  19.7538  19.7538
    21.9451  21.9451

          k = 0.3333 0.3333 0.4444 ( 10365 PWs)   bands (ev):

   -69.9365 -69.2295 -69.2230 -69.2193 -36.0019 -36.0011 -35.9954 -35.7819
   -35.5081 -35.4921 -35.2475 -35.2363 -35.2295 -35.1082 -35.1016 -35.0977
     2.0034   9.8386  10.1794  10.3014  14.0868  14.8129  14.9323  15.0658
    15.7098  15.9685  16.2183  16.2970  16.3760  16.5445  16.5850  16.7066
    17.4819  17.6855  17.7212  18.2224  18.2879  18.3196  19.0864  20.2693
    21.0593  21.9462

          k = 0.3333 0.4444 0.4444 ( 10334 PWs)   bands (ev):

   -69.9365 -69.2265 -69.2233 -69.2219 -36.0032 -36.0031 -35.9994 -35.7983
   -35.4998 -35.4823 -35.2515 -35.2381 -35.2374 -35.1000 -35.0997 -35.0893
     2.1816   9.7650   9.7772  10.1655  14.0870  14.8236  14.8779  14.9432
    15.8647  16.0631  16.2510  16.2629  16.4465  16.8098  16.8158  16.9890
    17.6310  17.6605  17.7495  18.2079  18.2603  18.5488  19.0741  19.6184
    20.9368  21.9308

          k = 0.4444 0.4444 0.4444 ( 10339 PWs)   bands (ev):

   -69.9365 -69.2250 -69.2233 -69.2233 -36.0053 -36.0053 -36.0040 -35.8159
   -35.4822 -35.4822 -35.2479 -35.2457 -35.2457 -35.0897 -35.0897 -35.0889
     2.3650   9.6880   9.6880   9.7163  14.0122  14.7928  14.8333  14.8333
    16.0115  16.0115  16.2629  16.2629  16.3294  17.4465  17.4465  17.4746
    17.7441  17.7441  17.9040  18.3146  18.3146  18.3174  18.9396  18.9396
    21.2441  21.2441

 ------ SPIN DOWN ----------


          k = 0.0000 0.0000 0.0000 ( 10395 PWs)   bands (ev):

   -67.3635 -67.3027 -67.3027 -66.5338 -33.9866 -33.9866 -33.9866 -33.2305
   -33.2305 -33.2305 -33.1918 -33.1918 -33.1918 -32.6393 -32.6393 -32.6393
     0.4462  11.7276  13.3946  13.3946  13.3946  15.2106  15.2106  15.5335
    15.5335  15.5335  18.0410  18.0410  18.0410  18.7045  18.7045  20.2816
    20.2816  20.2816  20.4080  20.4080  20.5091  20.8705  20.8705  20.8705
    23.0633  23.9612

          k = 0.0000 0.0000 0.1111 ( 10391 PWs)   bands (ev):

   -67.3618 -67.3043 -67.3027 -66.5339 -33.9854 -33.9854 -33.9849 -33.2309
   -33.2295 -33.2295 -33.1929 -33.1929 -33.1922 -32.6421 -32.6405 -32.6405
     0.5151  11.7586  13.0941  13.2811  13.2811  15.2705  15.3099  15.5907
    15.6866  15.6866  17.9633  18.1034  18.1034  18.7109  18.8012  20.2358
    20.2358  20.2817  20.3475  20.3643  20.4463  20.6201  20.6201  20.8706
    23.1046  23.6077

          k = 0.0000 0.0000 0.2222 ( 10379 PWs)   bands (ev):

   -67.3570 -67.3088 -67.3027 -66.5341 -33.9823 -33.9823 -33.9805 -33.2319
   -33.2270 -33.2270 -33.1958 -33.1958 -33.1931 -32.6495 -32.6435 -32.6435
     0.6979  11.5209  12.8546  13.0418  13.0418  15.3356  15.5856  15.7544
    16.0359  16.0359  17.7479  18.2771  18.2771  18.7203  18.8137  19.9886
    19.9886  20.1242  20.1427  20.2200  20.2200  20.2822  20.3764  20.8707
    23.0981  23.2963

          k = 0.0000 0.0000 0.3333 ( 10383 PWs)   bands (ev):

   -67.3502 -67.3154 -67.3026 -66.5343 -33.9787 -33.9787 -33.9754 -33.2330
   -33.2241 -33.2241 -33.1989 -33.1989 -33.1940 -32.6579 -32.6470 -32.6470
     0.9223  10.8625  12.8209  12.8209  13.2717  15.2192  15.9595  15.9954
    16.4087  16.4087  17.4486  18.5180  18.5180  18.5891  18.7024  19.4683
    19.4683  19.7686  19.8261  20.0525  20.0525  20.2827  20.3214  20.8709
    22.9354  23.5437

          k = 0.0000 0.0000 0.4444 ( 10403 PWs)   bands (ev):

   -67.3436 -67.3218 -67.3026 -66.5345 -33.9763 -33.9763 -33.9721 -33.2337
   -33.2223 -33.2223 -33.2009 -33.2009 -33.1947 -32.6634 -32.6493 -32.6493
     1.0802  10.3964  12.6954  12.6954  13.9346  14.7947  16.2269  16.2615
    16.6608  16.6608  17.1793  18.4154  18.6439  18.7635  18.7635  19.0530
    19.0530  19.4978  19.6036  19.9433  19.9433  20.2831  20.2853  20.8711
    22.9013  23.7476

          k = 0.0000 0.1111 0.1111 ( 10387 PWs)   bands (ev):

   -67.3602 -67.3050 -67.3035 -66.5339 -33.9982 -33.9842 -33.9695 -33.2350
   -33.2285 -33.2276 -33.1976 -33.1941 -33.1866 -32.6459 -32.6417 -32.6401
     0.5841  11.7908  12.8620  13.1405  13.1801  15.3466  15.3811  15.6566
    15.8146  15.8154  17.9270  18.1261  18.1577  18.7520  18.7966  20.1517
    20.1884  20.2134  20.2571  20.3570  20.4301  20.5232  20.5310  20.7748
    23.1395  23.8583

          k = 0.0000 0.1111 0.2222 ( 10387 PWs)   bands (ev):

   -67.3555 -67.3091 -67.3038 -66.5341 -34.0075 -33.9811 -33.9533 -33.2421
   -33.2258 -33.2254 -33.2009 -33.1969 -33.1814 -32.6523 -32.6448 -32.6422
     0.7670  11.5461  12.5126  12.9610  13.0783  15.4216  15.6385  15.8235
    16.1193  16.1286  17.7347  18.2826  18.2970  18.6945  18.7298  19.8199
    19.9568  19.9614  20.0875  20.2024  20.3612  20.3778  20.4817  20.7401
    23.2070  23.4011

          k = 0.0000 0.1111 0.3333 ( 10377 PWs)   bands (ev):

   -67.3488 -67.3155 -67.3038 -66.5344 -34.0131 -33.9776 -33.9397 -33.2492
   -33.2230 -33.2229 -33.2031 -33.2000 -33.1781 -32.6582 -32.6483 -32.6460
     0.9917  10.8682  12.4340  12.7535  13.4031  15.3131  16.0057  16.0653
    16.4578  16.4683  17.4441  18.3442  18.4937  18.5275  18.6582  19.4836
    19.4999  19.7218  19.8937  19.9373  20.2479  20.3628  20.3843  20.7409
    23.1201  23.4630

          k = 0.0000 0.1111 0.4444 ( 10380 PWs)   bands (ev):

   -67.3424 -67.3217 -67.3038 -66.5345 -34.0157 -33.9752 -33.9319 -33.2535
   -33.2212 -33.2210 -33.2044 -33.2020 -33.1767 -32.6617 -32.6507 -32.6489
     1.1499  10.3978  12.3629  12.6342  14.0097  14.9058  16.3025  16.3040
    16.6881  16.7030  17.1801  18.1819  18.3306  18.7855  18.7915  19.0849
    19.3043  19.5821  19.6172  19.8227  20.1429  20.3058  20.3645  20.7424
    23.1029  23.5992

          k = 0.0000 0.2222 0.2222 ( 10395 PWs)   bands (ev):

   -67.3513 -67.3109 -67.3060 -66.5343 -34.0288 -33.9781 -33.9267 -33.2582
   -33.2256 -33.2230 -33.2046 -33.1997 -33.1670 -32.6561 -32.6480 -32.6422
     0.9504  11.4991  11.8222  12.7778  13.2516  15.6150  15.7740  15.9973
    16.3297  16.3637  17.6309  18.2672  18.3694  18.5060  18.5786  19.6835
    19.7679  19.8179  19.9189  20.0932  20.4435  20.4475  20.5154  20.6847
    23.1191  23.9532

          k = 0.0000 0.2222 0.3333 ( 10380 PWs)   bands (ev):

   -67.3450 -67.3159 -67.3070 -66.5345 -34.0438 -33.9747 -33.9056 -33.2719
   -33.2254 -33.2198 -33.2088 -33.2029 -33.1558 -32.6579 -32.6516 -32.6446
     1.1762  10.8718  11.6510  12.5968  13.6634  15.5697  16.0778  16.2381
    16.5923  16.6216  17.4052  17.9795  18.2658  18.5837  18.5886  19.5183
    19.5366  19.7116  19.7451  19.8914  20.4105  20.4110  20.4838  20.6811
    23.0115  23.7343

          k = 0.0000 0.2222 0.4444 ( 10377 PWs)   bands (ev):

   -67.3389 -67.3216 -67.3072 -66.5346 -34.0516 -33.9724 -33.8939 -33.2795
   -33.2242 -33.2177 -33.2127 -33.2049 -33.1498 -32.6572 -32.6540 -32.6479
     1.3354  10.3960  11.6140  12.4902  14.2182  15.2000  16.3418  16.4882
    16.7633  16.8470  17.1757  17.7079  18.1341  18.6116  18.8659  19.1778
    19.3752  19.6216  19.6726  19.8136  20.3953  20.4156  20.4752  20.5142
    23.0488  23.6571

          k = 0.0000 0.3333 0.3333 ( 10385 PWs)   bands (ev):

   -67.3394 -67.3175 -67.3107 -66.5346 -34.0662 -33.9714 -33.8794 -33.2898
   -33.2277 -33.2162 -33.2160 -33.2061 -33.1381 -32.6556 -32.6554 -32.6449
     1.4037  10.8319  10.8969  12.4374  14.0754  15.8683  16.0259  16.4607
    16.7896  16.7990  17.2930  17.6315  18.0634  18.5077  18.7328  19.3587
    19.5304  19.5346  19.7312  19.9247  20.1458  20.5072  20.5136  20.8574
    22.5355  24.3133

          k = 0.0000 0.3333 0.4444 ( 10398 PWs)   bands (ev):

   -67.3337 -67.3215 -67.3124 -66.5347 -34.0779 -33.9692 -33.8650 -33.2995
   -33.2280 -33.2221 -33.2140 -33.2081 -33.1285 -32.6579 -32.6522 -32.6469
     1.5645  10.3852  10.8476  12.3419  14.5568  15.6032  16.2203  16.6896
    16.8594  17.0664  17.1526  17.3659  17.9797  18.4024  18.9743  19.2074
    19.2665  19.5027  19.5848  20.0347  20.0958  20.5256  20.5912  20.7761
    22.3309  24.3166

          k = 0.0000 0.4444 0.4444 ( 10386 PWs)   bands (ev):

   -67.3277 -67.3219 -67.3179 -66.5348 -34.0919 -33.9671 -33.8494 -33.3101
   -33.2302 -33.2285 -33.2115 -33.2103 -33.1169 -32.6605 -32.6484 -32.6468
     1.7268  10.3716  10.3756  12.2522  14.9225  15.9621  15.9822  16.8459
    16.9116  16.9141  17.1166  17.5506  17.9118  18.1332  19.0467  19.0619
    19.3044  19.4722  19.5334  19.7151  20.2625  20.5383  20.7784  20.8775
    21.8696  24.8265

          k = 0.1111 0.1111 0.1111 ( 10410 PWs)   bands (ev):

   -67.3586 -67.3050 -67.3050 -66.5340 -34.0115 -33.9684 -33.9684 -33.2359
   -33.2306 -33.2306 -33.1955 -33.1955 -33.1827 -32.6496 -32.6410 -32.6410
     0.6531  11.8237  12.7770  12.7770  13.1934  15.4347  15.4347  15.7978
    15.7978  15.9798  17.8992  18.1707  18.1707  18.7704  18.7704  20.0056
    20.1164  20.1420  20.1420  20.4004  20.4004  20.4019  20.6831  20.6831
    23.1809  24.0626

          k = 0.1111 0.1111 0.2222 ( 10389 PWs)   bands (ev):

   -67.3541 -67.3093 -67.3050 -66.5342 -34.0258 -33.9655 -33.9476 -33.2434
   -33.2379 -33.2286 -33.1954 -33.1927 -33.1770 -32.6554 -32.6433 -32.6428
     0.8362  11.5661  12.4035  12.5860  13.2014  15.5070  15.6956  15.9213
    16.1318  16.2323  17.7284  18.2744  18.2894  18.6800  18.6802  19.6473
    19.7882  19.9247  19.9925  20.2987  20.4490  20.4712  20.5379  20.7272
    23.2584  23.5522

          k = 0.1111 0.1111 0.3333 ( 10386 PWs)   bands (ev):

   -67.3476 -67.3155 -67.3049 -66.5344 -34.0355 -33.9623 -33.9304 -33.2515
   -33.2455 -33.2239 -33.1937 -33.1924 -33.1728 -32.6594 -32.6473 -32.6459
     1.0613  10.8679  12.3698  12.3989  13.5154  15.4058  16.0630  16.1447
    16.4745  16.5167  17.4469  18.2329  18.3235  18.6234  18.6584  19.2548
    19.5473  19.7153  19.8094  20.1298  20.3506  20.3762  20.5338  20.6670
    23.2542  23.4787

          k = 0.1111 0.1111 0.4444 ( 10374 PWs)   bands (ev):

   -67.3413 -67.3217 -67.3049 -66.5345 -34.0403 -33.9602 -33.9207 -33.2563
   -33.2502 -33.2198 -33.1938 -33.1922 -33.1706 -32.6602 -32.6519 -32.6477
     1.2199  10.3940  12.2892  12.3293  14.0812  15.0140  16.3633  16.3821
    16.6153  16.8201  17.1838  17.9895  18.2135  18.7871  18.8091  19.0181
    19.2798  19.6461  19.6872  20.0048  20.1066  20.3067  20.5542  20.6458
    23.2674  23.5688

          k = 0.1111 0.2222 0.2222 ( 10385 PWs)   bands (ev):

   -67.3500 -67.3109 -67.3073 -66.5343 -34.0488 -33.9566 -33.9259 -33.2587
   -33.2401 -33.2389 -33.1905 -33.1874 -33.1655 -32.6594 -32.6451 -32.6423
     1.0200  11.5141  11.7663  12.3869  13.3760  15.7044  15.8409  16.1109
    16.3312  16.3848  17.6415  18.2106  18.2627  18.5891  18.6016  19.4315
    19.5363  19.8333  19.8426  20.2436  20.4421  20.4843  20.7324  20.8285
    23.2302  23.9473

          k = 0.1111 0.2222 0.3333 ( 10385 PWs)   bands (ev):

   -67.3439 -67.3159 -67.3080 -66.5345 -34.0657 -33.9526 -33.9042 -33.2733
   -33.2497 -33.2378 -33.1876 -33.1852 -33.1549 -32.6603 -32.6480 -32.6443
     1.2464  10.8574  11.6115  12.2609  13.7620  15.6578  16.1554  16.3303
    16.5270  16.6652  17.4261  17.9405  18.1448  18.6005  18.6607  19.2780
    19.3043  19.7069  19.8062  20.0895  20.3802  20.4332  20.7262  20.8362
    23.1213  23.7696

          k = 0.1111 0.2222 0.4444 ( 10386 PWs)   bands (ev):

   -67.3380 -67.3215 -67.3081 -66.5346 -34.0746 -33.9504 -33.8918 -33.2814
   -33.2555 -33.2366 -33.1859 -33.1850 -33.1491 -32.6576 -32.6526 -32.6463
     1.4062  10.3800  11.5686  12.1835  14.2831  15.2976  16.4053  16.5685
    16.6592  16.9775  17.1955  17.6108  18.0537  18.6267  18.8409  19.0776
    19.1791  19.7029  19.8059  19.9539  20.3194  20.3829  20.4879  20.8718
    23.1470  23.7262

          k = 0.1111 0.3333 0.3333 ( 10380 PWs)   bands (ev):

   -67.3386 -67.3175 -67.3115 -66.5346 -34.0888 -33.9482 -33.8790 -33.2921
   -33.2525 -33.2490 -33.1846 -33.1828 -33.1378 -32.6593 -32.6492 -32.6442
     1.4749  10.8123  10.8546  12.1296  14.1548  15.9504  16.0732  16.5538
    16.6811  16.8731  17.3267  17.6478  17.9841  18.5072  18.7404  19.0986
    19.3923  19.5425  19.9238  19.9247  20.2616  20.4110  20.8983  20.9778
    22.5959  24.2109

          k = 0.1111 0.3333 0.4444 ( 10373 PWs)   bands (ev):

   -67.3330 -67.3215 -67.3130 -66.5347 -34.1011 -33.9459 -33.8647 -33.3022
   -33.2583 -33.2513 -33.1831 -33.1823 -33.1284 -32.6573 -32.6497 -32.6455
     1.6366  10.3567  10.8090  12.0486  14.6043  15.6785  16.2441  16.7772
    16.8627  17.0623  17.1774  17.4109  17.9282  18.4036  18.8154  18.9912
    19.3557  19.5849  19.7343  19.9963  20.1408  20.5093  20.7319  21.0728
    22.3519  24.2446

          k = 0.1111 0.4444 0.4444 ( 10375 PWs)   bands (ev):

   -67.3273 -67.3218 -67.3181 -66.5348 -34.1154 -33.9437 -33.8493 -33.3133
   -33.2604 -33.2597 -33.1817 -33.1815 -33.1169 -32.6579 -32.6468 -32.6455
     1.8000  10.3371  10.3386  11.9661  14.9331  15.9995  16.0392  16.8468
    16.9392  17.0014  17.1564  17.6199  17.8809  18.1381  18.6866  19.0342
    19.4388  19.5798  19.6273  19.9198  19.9907  20.7270  20.8652  21.1310
    21.8234  24.5854

          k = 0.2222 0.2222 0.2222 ( 10402 PWs)   bands (ev):

   -67.3462 -67.3108 -67.3108 -66.5345 -34.0775 -33.9239 -33.9239 -33.2612
   -33.2612 -33.2585 -33.1745 -33.1745 -33.1596 -32.6624 -32.6428 -32.6428
     1.2051  11.5056  11.6331  11.6331  13.6117  15.9656  15.9656  16.3810
    16.3960  16.3960  17.6133  18.0859  18.0859  18.6335  18.6335  19.2214
    19.2255  19.7408  19.7408  20.3380  20.4369  20.4369  21.0800  21.0800
    23.3971  23.8153

          k = 0.2222 0.2222 0.3333 ( 10384 PWs)   bands (ev):

   -67.3408 -67.3161 -67.3108 -66.5346 -34.0996 -33.9217 -33.8973 -33.2782
   -33.2759 -33.2613 -33.1695 -33.1640 -33.1501 -32.6614 -32.6443 -32.6432
     1.4335  10.8142  11.4940  11.5402  14.0010  15.8917  16.3473  16.3801
    16.5658  16.7438  17.4589  17.8192  17.9646  18.6056  18.6849  18.9744
    19.2131  19.6808  19.7892  20.2383  20.3907  20.4168  20.9557  21.2853
    23.3372  23.6137

          k = 0.2222 0.2222 0.4444 ( 10365 PWs)   bands (ev):

   -67.3353 -67.3215 -67.3108 -66.5347 -34.1113 -33.9201 -33.8825 -33.2877
   -33.2846 -33.2624 -33.1677 -33.1591 -33.1441 -32.6568 -32.6491 -32.6435
     1.5951  10.3372  11.4091  11.5219  14.4638  15.5468  16.4097  16.6962
    16.7869  17.0772  17.2509  17.4544  17.9242  18.6153  18.7202  18.7985
    19.2515  19.7832  19.8993  20.1208  20.3446  20.3566  20.5388  21.3916
    23.3746  23.4639

          k = 0.2222 0.3333 0.3333 ( 10369 PWs)   bands (ev):

   -67.3361 -67.3175 -67.3139 -66.5347 -34.1264 -33.9093 -33.8781 -33.2981
   -33.2825 -33.2786 -33.1585 -33.1566 -33.1369 -32.6588 -32.6433 -32.6424
     1.6650  10.7517  10.7597  11.4196  14.3573  16.1251  16.1725  16.5858
    16.7955  16.9206  17.4225  17.6825  17.8429  18.5146  18.6474  18.7608
    19.3523  19.6420  19.8903  20.1760  20.3801  20.3972  21.0667  21.4859
    22.7512  23.7077

          k = 0.2222 0.3333 0.4444 ( 10369 PWs)   bands (ev):

   -67.3312 -67.3214 -67.3147 -66.5347 -34.1408 -33.9064 -33.8634 -33.3092
   -33.2912 -33.2830 -33.1562 -33.1519 -33.1279 -32.6542 -32.6451 -32.6421
     1.8293  10.2852  10.7137  11.3578  14.7231  15.8567  16.2686  16.8383
    17.0105  17.0608  17.3086  17.5570  17.8457  18.4189  18.5335  18.7259
    19.4677  19.7470  19.9623  20.0609  20.3209  20.4541  20.7319  21.6894
    22.3541  23.6879

          k = 0.2222 0.4444 0.4444 ( 10366 PWs)   bands (ev):

   -67.3265 -67.3218 -67.3189 -66.5348 -34.1568 -33.9024 -33.8491 -33.3212
   -33.2950 -33.2943 -33.1507 -33.1505 -33.1167 -32.6513 -32.6427 -32.6423
     1.9960  10.2478  10.2519  11.2849  14.9444  16.0836  16.1699  16.6777
    17.2032  17.2398  17.3383  17.7452  17.8431  18.1948  18.3672  18.7274
    19.6939  19.7347  19.8890  19.9596  20.2297  20.6463  20.8148  21.6134
    21.8562  23.8901

          k = 0.3333 0.3333 0.3333 ( 10357 PWs)   bands (ev):

   -67.3324 -67.3174 -67.3174 -66.5347 -34.1570 -33.8771 -33.8771 -33.3058
   -33.3058 -33.2999 -33.1404 -33.1404 -33.1333 -32.6544 -32.6403 -32.6403
     1.9011  10.6409  10.6409  10.7350  14.6292  16.0838  16.4464  16.4464
    17.0957  17.0957  17.5101  17.7471  17.7471  18.4504  18.5255  18.5255
    19.5063  19.8513  19.8513  20.2895  20.3759  20.3759  21.3674  21.3674
    22.9688  22.9688

          k = 0.3333 0.3333 0.4444 ( 10365 PWs)   bands (ev):

   -67.3284 -67.3214 -67.3174 -66.5347 -34.1736 -33.8764 -33.8593 -33.3184
   -33.3145 -33.3075 -33.1377 -33.1312 -33.1256 -32.6488 -32.6410 -32.6390
     2.0693  10.2049  10.5718  10.6654  14.8542  16.0352  16.2875  16.6327
    17.3154  17.3326  17.5108  17.7315  17.8242  18.2897  18.4213  18.5172
    19.6666  19.9041  20.0201  20.2099  20.3905  20.4080  20.7759  21.7174
    22.3421  23.1529

          k = 0.3333 0.4444 0.4444 ( 10334 PWs)   bands (ev):

   -67.3251 -67.3218 -67.3202 -66.5347 -34.1916 -33.8679 -33.8490 -33.3300
   -33.3214 -33.3206 -33.1285 -33.1281 -33.1166 -32.6437 -32.6386 -32.6383
     2.2408  10.1489  10.1584  10.5576  14.9331  16.1686  16.2821  16.4794
    17.5926  17.5995  17.6672  17.8601  17.8664  18.1333  18.3000  18.4924
    19.8637  19.9510  20.0416  20.1413  20.4197  20.4852  20.7227  21.2311
    22.3660  23.1195

          k = 0.4444 0.4444 0.4444 ( 10339 PWs)   bands (ev):

   -67.3235 -67.3217 -67.3217 -66.5347 -34.2107 -33.8488 -33.8488 -33.3357
   -33.3357 -33.3347 -33.1170 -33.1170 -33.1161 -32.6381 -32.6361 -32.6361
     2.4166  10.0867  10.0867  10.1093  14.9150  16.2386  16.3299  16.3299
    17.8948  17.8948  17.9810  17.9810  17.9854  18.0022  18.3664  18.3664
    20.0130  20.0709  20.0709  20.2603  20.3446  20.3446  20.7348  20.7348
    22.6687  22.6687

     the Fermi energy is    18.7318 ev

!    total energy              =   -1345.17082142 Ry
     Harris-Foulkes estimate   =   -1345.17082142 Ry
     estimated scf accuracy    <          5.3E-09 Ry

     total all-electron energy =    -10291.772457 Ry

     The total energy is the sum of the following terms:

     one-electron contribution =    -446.73757030 Ry
     hartree contribution      =     269.20267073 Ry
     xc contribution           =    -117.08723247 Ry
     ewald contribution        =    -711.61403732 Ry
     one-center paw contrib.   =    -338.93474229 Ry
     smearing contrib. (-TS)   =       0.00009023 Ry

     total magnetization       =     7.68 Bohr mag/cell
     absolute magnetization    =     8.03 Bohr mag/cell

     convergence has been achieved in  28 iterations

     Forces acting on atoms (Ry/au):


     negative rho (up, down):  0.000E+00 1.393E-04
     atom    1 type  1   force =     0.00000000    0.00000000    0.00000000
     atom    2 type  1   force =     0.00000000    0.00000000    0.00000000
     atom    3 type  1   force =     0.00000000    0.00000000    0.00000000
     atom    4 type  1   force =     0.00000000    0.00000000    0.00000000
     atom    5 type  2   force =     0.00000000    0.00000000    0.00000000

     Total force =     0.000000     Total SCF correction =     0.000000


     entering subroutine stress ...


     negative rho (up, down):  0.000E+00 1.393E-04
          total   stress  (Ry/bohr**3)                   (kbar)     P=  150.51
   0.00102314   0.00000000   0.00000000        150.51      0.00      0.00
   0.00000000   0.00102314   0.00000000          0.00    150.51      0.00
   0.00000000   0.00000000   0.00102314          0.00      0.00    150.51


     Writing output data file config.save
 
     init_run     :      5.63s CPU      5.87s WALL (       1 calls)
     electrons    :    422.87s CPU    430.52s WALL (       1 calls)
     forces       :      1.47s CPU      1.52s WALL (       1 calls)
     stress       :      4.88s CPU      4.94s WALL (       1 calls)

     Called by init_run:
     wfcinit      :      4.52s CPU      4.66s WALL (       1 calls)
     potinit      :      0.52s CPU      0.55s WALL (       1 calls)

     Called by electrons:
     c_bands      :    336.58s CPU    340.88s WALL (      28 calls)
     sum_band     :     68.32s CPU     70.32s WALL (      28 calls)
     v_of_rho     :      2.89s CPU      2.95s WALL (      29 calls)
     newd         :      3.49s CPU      4.28s WALL (      29 calls)
     mix_rho      :      0.74s CPU      0.74s WALL (      28 calls)

     Called by c_bands:
     init_us_2    :      6.50s CPU      6.62s WALL (    4130 calls)
     cegterg      :    313.39s CPU    317.33s WALL (    1960 calls)

     Called by sum_band:
     sum_band:bec :      0.07s CPU      0.07s WALL (    1960 calls)
     addusdens    :      8.45s CPU      9.41s WALL (      28 calls)

     Called by *egterg:
     h_psi        :    227.83s CPU    230.99s WALL (    6744 calls)
     s_psi        :      9.66s CPU      9.76s WALL (    6744 calls)
     g_psi        :      1.77s CPU      1.80s WALL (    4714 calls)
     cdiaghg      :     19.83s CPU     20.00s WALL (    6674 calls)

     Called by h_psi:
     add_vuspsi   :      9.16s CPU      9.31s WALL (    6744 calls)

     General routines
     calbec       :     15.99s CPU     16.25s WALL (    9054 calls)
     fft          :      1.55s CPU      1.57s WALL (     933 calls)
     ffts         :      0.11s CPU      0.11s WALL (     114 calls)
     fftw         :    204.32s CPU    207.38s WALL (  469136 calls)
     interpolate  :      0.42s CPU      0.42s WALL (     114 calls)
     davcio       :      0.12s CPU      0.69s WALL (      70 calls)
 
     Parallel routines
     fft_scatter  :     74.59s CPU     75.85s WALL (  470183 calls)

     PAW routines
     PAW_pot      :     11.07s CPU     11.44s WALL (      29 calls)
     PAW_symme    :      0.04s CPU      0.04s WALL (      57 calls)
 
     PWSCF        :  7m15.52s CPU     7m24.40s WALL

 
   This run was terminated on:  23:35:35  26Oct2020            

=------------------------------------------------------------------------------=
   JOB DONE.
=------------------------------------------------------------------------------=
