
     Program PWSCF v.5.2.0 starts on 26Oct2020 at 23:42:45 

     This program is part of the open-source Quantum ESPRESSO suite
     for quantum simulation of materials; please cite
         "P. Giannozzi et al., J. Phys.:Condens. Matter 21 395502 (2009);
          URL http://www.quantum-espresso.org", 
     in publications or presentations arising from this work. More details at
     http://www.quantum-espresso.org/quote

     Parallel version (MPI), running on     6 processors
     R & G space division:  proc/nbgrp/npool/nimage =       6
     Reading input from 11.in

     Current dimensions of program PWSCF are:
     Max number of different atomic species (ntypx) = 10
     Max number of k-points (npk) =  40000
     Max angular momentum in pseudopotentials (lmaxx) =  3

     IMPORTANT: XC functional enforced from input :
     Exchange-correlation      = PBE ( 1  4  3  4 0 0)
     Any further DFT definition will be discarded
     Please, verify this is what you really want

               file Fe_PSEUDO: wavefunction(s)  3P 3D renormalized
               file N_PSEUDO: wavefunction(s)  2S renormalized

     Subspace diagonalization in iterative solution of the eigenvalue problem:
     a serial algorithm will be used

 
     Parallelization info
     --------------------
     sticks:   dense  smooth     PW     G-vecs:    dense   smooth      PW
     Min         616     408    112                28010    15268    2232
     Max         617     409    113                28013    15278    2237
     Sum        3697    2449    673               168069    91623   13397
 
     Generating pointlists ...
     new r_m :   0.2063 (alat units)  1.4318 (a.u.) for type    1
     new r_m :   0.2063 (alat units)  1.4318 (a.u.) for type    2


     bravais-lattice index     =            0
     lattice parameter (alat)  =       6.9422  a.u.
     unit-cell volume          =     334.5777 (a.u.)^3
     number of atoms/cell      =            5
     number of atomic types    =            2
     number of electrons       =        69.00
     number of Kohn-Sham states=           42
     kinetic-energy cutoff     =     160.0000  Ry
     charge density cutoff     =     960.0000  Ry
     convergence threshold     =      1.0E-08
     mixing beta               =       0.7000
     number of iterations used =            8  plain     mixing
     Exchange-correlation      = PBE ( 1  4  3  4 0 0)

     celldm(1)=   6.942230  celldm(2)=   0.000000  celldm(3)=   0.000000
     celldm(4)=   0.000000  celldm(5)=   0.000000  celldm(6)=   0.000000

     crystal axes: (cart. coord. in units of alat)
               a(1) = (   1.000000   0.000000   0.000000 )  
               a(2) = (   0.000000   1.000000   0.000000 )  
               a(3) = (   0.000000   0.000000   1.000000 )  

     reciprocal axes: (cart. coord. in units 2 pi/alat)
               b(1) = (  1.000000  0.000000  0.000000 )  
               b(2) = (  0.000000  1.000000  0.000000 )  
               b(3) = (  0.000000  0.000000  1.000000 )  


     PseudoPot. # 1 for Fe read from file:
     pseudo/Fe_PSEUDO
     MD5 check sum: e30d5f36a6f0cb983ee41abee56170da
     Pseudo is Projector augmented-wave + core cor, Zval = 16.0
     Generated using "atomic" code by A. Dal Corso  v.6.3
     Shape of augmentation charge: PSQ
     Using radial grid of 1191 points,  6 beta functions with: 
                l(1) =   0
                l(2) =   0
                l(3) =   1
                l(4) =   1
                l(5) =   2
                l(6) =   2
     Q(r) pseudized with 0 coefficients 


     PseudoPot. # 2 for  N read from file:
     pseudo/N_PSEUDO
     MD5 check sum: 14c48229446f9f2d411169a3abcbc3fa
     Pseudo is Projector augmented-wave + core cor, Zval =  5.0
     Generated using "atomic" code by A. Dal Corso  v.6.3
     Shape of augmentation charge: PSQ
     Using radial grid of 1085 points,  4 beta functions with: 
                l(1) =   0
                l(2) =   0
                l(3) =   1
                l(4) =   1
     Q(r) pseudized with 0 coefficients 


     atomic species   valence    mass     pseudopotential
        Fe            16.00    55.84500     Fe( 1.00)
        N              5.00    14.00650      N( 1.00)

     Starting magnetic structure 
     atomic species   magnetization
        Fe           0.500
        N           -0.010

     48 Sym. Ops., with inversion, found



   Cartesian axes

     site n.     atom                  positions (alat units)
         1           Fe  tau(   1) = (   0.0000000   0.5000000   0.5000000  )
         2           Fe  tau(   2) = (   0.5000000   0.5000000   0.0000000  )
         3           Fe  tau(   3) = (   0.5000000   0.0000000   0.5000000  )
         4           Fe  tau(   4) = (   0.0000000   0.0000000   0.0000000  )
         5           N   tau(   5) = (   0.5000000   0.5000000   0.5000000  )

     number of k points=    70  Marzari-Vanderbilt smearing, width (Ry)=  0.0050
                       cart. coord. in units 2pi/alat
        k(    1) = (   0.0000000   0.0000000   0.0000000), wk =   0.0013717
        k(    2) = (   0.0000000   0.0000000   0.1111111), wk =   0.0082305
        k(    3) = (   0.0000000   0.0000000   0.2222222), wk =   0.0082305
        k(    4) = (   0.0000000   0.0000000   0.3333333), wk =   0.0082305
        k(    5) = (   0.0000000   0.0000000   0.4444444), wk =   0.0082305
        k(    6) = (   0.0000000   0.1111111   0.1111111), wk =   0.0164609
        k(    7) = (   0.0000000   0.1111111   0.2222222), wk =   0.0329218
        k(    8) = (   0.0000000   0.1111111   0.3333333), wk =   0.0329218
        k(    9) = (   0.0000000   0.1111111   0.4444444), wk =   0.0329218
        k(   10) = (   0.0000000   0.2222222   0.2222222), wk =   0.0164609
        k(   11) = (   0.0000000   0.2222222   0.3333333), wk =   0.0329218
        k(   12) = (   0.0000000   0.2222222   0.4444444), wk =   0.0329218
        k(   13) = (   0.0000000   0.3333333   0.3333333), wk =   0.0164609
        k(   14) = (   0.0000000   0.3333333   0.4444444), wk =   0.0329218
        k(   15) = (   0.0000000   0.4444444   0.4444444), wk =   0.0164609
        k(   16) = (   0.1111111   0.1111111   0.1111111), wk =   0.0109739
        k(   17) = (   0.1111111   0.1111111   0.2222222), wk =   0.0329218
        k(   18) = (   0.1111111   0.1111111   0.3333333), wk =   0.0329218
        k(   19) = (   0.1111111   0.1111111   0.4444444), wk =   0.0329218
        k(   20) = (   0.1111111   0.2222222   0.2222222), wk =   0.0329218
        k(   21) = (   0.1111111   0.2222222   0.3333333), wk =   0.0658436
        k(   22) = (   0.1111111   0.2222222   0.4444444), wk =   0.0658436
        k(   23) = (   0.1111111   0.3333333   0.3333333), wk =   0.0329218
        k(   24) = (   0.1111111   0.3333333   0.4444444), wk =   0.0658436
        k(   25) = (   0.1111111   0.4444444   0.4444444), wk =   0.0329218
        k(   26) = (   0.2222222   0.2222222   0.2222222), wk =   0.0109739
        k(   27) = (   0.2222222   0.2222222   0.3333333), wk =   0.0329218
        k(   28) = (   0.2222222   0.2222222   0.4444444), wk =   0.0329218
        k(   29) = (   0.2222222   0.3333333   0.3333333), wk =   0.0329218
        k(   30) = (   0.2222222   0.3333333   0.4444444), wk =   0.0658436
        k(   31) = (   0.2222222   0.4444444   0.4444444), wk =   0.0329218
        k(   32) = (   0.3333333   0.3333333   0.3333333), wk =   0.0109739
        k(   33) = (   0.3333333   0.3333333   0.4444444), wk =   0.0329218
        k(   34) = (   0.3333333   0.4444444   0.4444444), wk =   0.0329218
        k(   35) = (   0.4444444   0.4444444   0.4444444), wk =   0.0109739
        k(   36) = (   0.0000000   0.0000000   0.0000000), wk =   0.0013717
        k(   37) = (   0.0000000   0.0000000   0.1111111), wk =   0.0082305
        k(   38) = (   0.0000000   0.0000000   0.2222222), wk =   0.0082305
        k(   39) = (   0.0000000   0.0000000   0.3333333), wk =   0.0082305
        k(   40) = (   0.0000000   0.0000000   0.4444444), wk =   0.0082305
        k(   41) = (   0.0000000   0.1111111   0.1111111), wk =   0.0164609
        k(   42) = (   0.0000000   0.1111111   0.2222222), wk =   0.0329218
        k(   43) = (   0.0000000   0.1111111   0.3333333), wk =   0.0329218
        k(   44) = (   0.0000000   0.1111111   0.4444444), wk =   0.0329218
        k(   45) = (   0.0000000   0.2222222   0.2222222), wk =   0.0164609
        k(   46) = (   0.0000000   0.2222222   0.3333333), wk =   0.0329218
        k(   47) = (   0.0000000   0.2222222   0.4444444), wk =   0.0329218
        k(   48) = (   0.0000000   0.3333333   0.3333333), wk =   0.0164609
        k(   49) = (   0.0000000   0.3333333   0.4444444), wk =   0.0329218
        k(   50) = (   0.0000000   0.4444444   0.4444444), wk =   0.0164609
        k(   51) = (   0.1111111   0.1111111   0.1111111), wk =   0.0109739
        k(   52) = (   0.1111111   0.1111111   0.2222222), wk =   0.0329218
        k(   53) = (   0.1111111   0.1111111   0.3333333), wk =   0.0329218
        k(   54) = (   0.1111111   0.1111111   0.4444444), wk =   0.0329218
        k(   55) = (   0.1111111   0.2222222   0.2222222), wk =   0.0329218
        k(   56) = (   0.1111111   0.2222222   0.3333333), wk =   0.0658436
        k(   57) = (   0.1111111   0.2222222   0.4444444), wk =   0.0658436
        k(   58) = (   0.1111111   0.3333333   0.3333333), wk =   0.0329218
        k(   59) = (   0.1111111   0.3333333   0.4444444), wk =   0.0658436
        k(   60) = (   0.1111111   0.4444444   0.4444444), wk =   0.0329218
        k(   61) = (   0.2222222   0.2222222   0.2222222), wk =   0.0109739
        k(   62) = (   0.2222222   0.2222222   0.3333333), wk =   0.0329218
        k(   63) = (   0.2222222   0.2222222   0.4444444), wk =   0.0329218
        k(   64) = (   0.2222222   0.3333333   0.3333333), wk =   0.0329218
        k(   65) = (   0.2222222   0.3333333   0.4444444), wk =   0.0658436
        k(   66) = (   0.2222222   0.4444444   0.4444444), wk =   0.0329218
        k(   67) = (   0.3333333   0.3333333   0.3333333), wk =   0.0109739
        k(   68) = (   0.3333333   0.3333333   0.4444444), wk =   0.0329218
        k(   69) = (   0.3333333   0.4444444   0.4444444), wk =   0.0329218
        k(   70) = (   0.4444444   0.4444444   0.4444444), wk =   0.0109739

     Dense  grid:   168069 G-vectors     FFT dimensions: (  72,  72,  72)

     Smooth grid:    91623 G-vectors     FFT dimensions: (  60,  60,  60)

     Largest allocated arrays     est. size (Mb)     dimensions
        Kohn-Sham Wavefunctions         1.25 Mb     (    1945,   42)
        NL pseudopotentials             2.37 Mb     (    1945,   80)
        Each V/rho on FFT grid          1.90 Mb     (   62208,   2)
        Each G-vector array             0.21 Mb     (   28012)
        G-vector shells                 0.01 Mb     (     975)
     Largest temporary arrays     est. size (Mb)     dimensions
        Auxiliary wavefunctions         4.99 Mb     (    1945,  168)
        Each subspace H/S matrix        0.43 Mb     (     168,  168)
        Each <psi_i|beta_j> matrix      0.05 Mb     (      80,   42)
        Arrays for rho mixing           7.59 Mb     (   62208,    8)

     Initial potential from superposition of free atoms

     starting charge   68.99837, renormalised to   69.00000
     Starting wfc are   44 randomized atomic wfcs
     Checking if some PAW data can be deallocated... 

     total cpu time spent up to now is        6.6 secs

     per-process dynamical memory:   139.9 Mb

     Self-consistent Calculation

     iteration #  1     ecut=   160.00 Ry     beta=0.70
     Davidson diagonalization with overlap
     ethr =  1.00E-02,  avg # of iterations =  3.1

     negative rho (up, down):  0.000E+00 3.390E-04
 
     Magnetic moment per site:
     atom:    1    charge:   12.7331    magn:    4.0979    constr:    0.0000
     atom:    2    charge:   12.7331    magn:    4.0979    constr:    0.0000
     atom:    3    charge:   12.7331    magn:    4.0979    constr:    0.0000
     atom:    4    charge:   12.6139    magn:    4.1673    constr:    0.0000
     atom:    5    charge:    4.6359    magn:    0.1182    constr:    0.0000

     total cpu time spent up to now is       24.1 secs

     total energy              =   -1344.14427891 Ry
     Harris-Foulkes estimate   =   -1343.44660061 Ry
     estimated scf accuracy    <       2.86619602 Ry

     total magnetization       =    13.87 Bohr mag/cell
     absolute magnetization    =    14.05 Bohr mag/cell

     iteration #  2     ecut=   160.00 Ry     beta=0.70
     Davidson diagonalization with overlap
     ethr =  4.15E-03,  avg # of iterations =  3.3

     negative rho (up, down):  0.000E+00 2.926E-04
 
     Magnetic moment per site:
     atom:    1    charge:   12.7244    magn:    3.8167    constr:    0.0000
     atom:    2    charge:   12.7244    magn:    3.8167    constr:    0.0000
     atom:    3    charge:   12.7244    magn:    3.8167    constr:    0.0000
     atom:    4    charge:   13.0649    magn:    3.5706    constr:    0.0000
     atom:    5    charge:    4.2260    magn:    0.0569    constr:    0.0000

     total cpu time spent up to now is       41.1 secs

     total energy              =   -1343.30229786 Ry
     Harris-Foulkes estimate   =   -1345.74915139 Ry
     estimated scf accuracy    <       8.50774415 Ry

     total magnetization       =     9.38 Bohr mag/cell
     absolute magnetization    =    10.49 Bohr mag/cell

     iteration #  3     ecut=   160.00 Ry     beta=0.70
     Davidson diagonalization with overlap
     ethr =  4.15E-03,  avg # of iterations =  3.5

     negative rho (up, down):  0.000E+00 2.230E-04
 
     Magnetic moment per site:
     atom:    1    charge:   12.8850    magn:    3.4482    constr:    0.0000
     atom:    2    charge:   12.8850    magn:    3.4482    constr:    0.0000
     atom:    3    charge:   12.8850    magn:    3.4482    constr:    0.0000
     atom:    4    charge:   12.8121    magn:    3.0190    constr:    0.0000
     atom:    5    charge:    4.0301    magn:    0.0239    constr:    0.0000

     total cpu time spent up to now is       59.1 secs

     total energy              =   -1343.62285292 Ry
     Harris-Foulkes estimate   =   -1346.18873135 Ry
     estimated scf accuracy    <      25.50550180 Ry

     total magnetization       =     3.80 Bohr mag/cell
     absolute magnetization    =     4.51 Bohr mag/cell

     iteration #  4     ecut=   160.00 Ry     beta=0.70
     Davidson diagonalization with overlap
     ethr =  4.15E-03,  avg # of iterations =  3.2

     negative rho (up, down):  0.000E+00 4.355E-04
 
     Magnetic moment per site:
     atom:    1    charge:   12.7745    magn:    2.2619    constr:    0.0000
     atom:    2    charge:   12.7745    magn:    2.2619    constr:    0.0000
     atom:    3    charge:   12.7745    magn:    2.2619    constr:    0.0000
     atom:    4    charge:   12.7286    magn:    1.8785    constr:    0.0000
     atom:    5    charge:    4.0533    magn:   -0.0487    constr:    0.0000

     total cpu time spent up to now is       76.3 secs

     total energy              =   -1345.02960879 Ry
     Harris-Foulkes estimate   =   -1345.10716208 Ry
     estimated scf accuracy    <       0.54840621 Ry

     total magnetization       =    10.75 Bohr mag/cell
     absolute magnetization    =    11.16 Bohr mag/cell

     iteration #  5     ecut=   160.00 Ry     beta=0.70
     Davidson diagonalization with overlap
     ethr =  7.95E-04,  avg # of iterations =  3.3

     negative rho (up, down):  0.000E+00 3.631E-04
 
     Magnetic moment per site:
     atom:    1    charge:   12.8333    magn:    2.1624    constr:    0.0000
     atom:    2    charge:   12.8333    magn:    2.1624    constr:    0.0000
     atom:    3    charge:   12.8333    magn:    2.1624    constr:    0.0000
     atom:    4    charge:   12.8041    magn:    2.0420    constr:    0.0000
     atom:    5    charge:    4.1101    magn:   -0.0268    constr:    0.0000

     total cpu time spent up to now is       94.7 secs

     total energy              =   -1345.11507214 Ry
     Harris-Foulkes estimate   =   -1345.20221498 Ry
     estimated scf accuracy    <       0.24081707 Ry

     total magnetization       =     9.59 Bohr mag/cell
     absolute magnetization    =     9.95 Bohr mag/cell

     iteration #  6     ecut=   160.00 Ry     beta=0.70
     Davidson diagonalization with overlap
     ethr =  3.49E-04,  avg # of iterations =  3.0

     negative rho (up, down):  0.000E+00 3.293E-04
 
     Magnetic moment per site:
     atom:    1    charge:   12.8271    magn:    2.1146    constr:    0.0000
     atom:    2    charge:   12.8271    magn:    2.1146    constr:    0.0000
     atom:    3    charge:   12.8271    magn:    2.1146    constr:    0.0000
     atom:    4    charge:   12.7930    magn:    2.3694    constr:    0.0000
     atom:    5    charge:    4.1120    magn:    0.0064    constr:    0.0000

     total cpu time spent up to now is      111.4 secs

     total energy              =   -1345.16179231 Ry
     Harris-Foulkes estimate   =   -1345.15756242 Ry
     estimated scf accuracy    <       0.02599453 Ry

     total magnetization       =     9.38 Bohr mag/cell
     absolute magnetization    =     9.72 Bohr mag/cell

     iteration #  7     ecut=   160.00 Ry     beta=0.70
     Davidson diagonalization with overlap
     ethr =  3.77E-05,  avg # of iterations =  1.7

     negative rho (up, down):  0.000E+00 3.426E-04
 
     Magnetic moment per site:
     atom:    1    charge:   12.8277    magn:    1.9568    constr:    0.0000
     atom:    2    charge:   12.8277    magn:    1.9568    constr:    0.0000
     atom:    3    charge:   12.8277    magn:    1.9568    constr:    0.0000
     atom:    4    charge:   12.7726    magn:    2.8109    constr:    0.0000
     atom:    5    charge:    4.1113    magn:    0.0392    constr:    0.0000

     total cpu time spent up to now is      126.2 secs

     total energy              =   -1345.16166411 Ry
     Harris-Foulkes estimate   =   -1345.16355515 Ry
     estimated scf accuracy    <       0.01804722 Ry

     total magnetization       =     9.38 Bohr mag/cell
     absolute magnetization    =     9.71 Bohr mag/cell

     iteration #  8     ecut=   160.00 Ry     beta=0.70
     Davidson diagonalization with overlap
     ethr =  2.62E-05,  avg # of iterations =  2.2

     negative rho (up, down):  0.000E+00 3.229E-04
 
     Magnetic moment per site:
     atom:    1    charge:   12.8308    magn:    1.8621    constr:    0.0000
     atom:    2    charge:   12.8308    magn:    1.8621    constr:    0.0000
     atom:    3    charge:   12.8308    magn:    1.8621    constr:    0.0000
     atom:    4    charge:   12.7751    magn:    2.7251    constr:    0.0000
     atom:    5    charge:    4.1092    magn:    0.0310    constr:    0.0000

     total cpu time spent up to now is      141.7 secs

     total energy              =   -1345.16670543 Ry
     Harris-Foulkes estimate   =   -1345.16572699 Ry
     estimated scf accuracy    <       0.00209582 Ry

     total magnetization       =     9.00 Bohr mag/cell
     absolute magnetization    =     9.35 Bohr mag/cell

     iteration #  9     ecut=   160.00 Ry     beta=0.70
     Davidson diagonalization with overlap
     ethr =  3.04E-06,  avg # of iterations =  2.1

     negative rho (up, down):  0.000E+00 3.683E-04
 
     Magnetic moment per site:
     atom:    1    charge:   12.8287    magn:    1.9947    constr:    0.0000
     atom:    2    charge:   12.8287    magn:    1.9947    constr:    0.0000
     atom:    3    charge:   12.8287    magn:    1.9947    constr:    0.0000
     atom:    4    charge:   12.7741    magn:    2.7577    constr:    0.0000
     atom:    5    charge:    4.1140    magn:    0.0387    constr:    0.0000

     total cpu time spent up to now is      156.7 secs

     total energy              =   -1345.16415035 Ry
     Harris-Foulkes estimate   =   -1345.16752844 Ry
     estimated scf accuracy    <       0.00202920 Ry

     total magnetization       =     8.58 Bohr mag/cell
     absolute magnetization    =     8.96 Bohr mag/cell

     iteration # 10     ecut=   160.00 Ry     beta=0.70
     Davidson diagonalization with overlap
     ethr =  2.94E-06,  avg # of iterations =  1.9

     negative rho (up, down):  0.000E+00 3.905E-04
 
     Magnetic moment per site:
     atom:    1    charge:   12.8272    magn:    2.0797    constr:    0.0000
     atom:    2    charge:   12.8272    magn:    2.0797    constr:    0.0000
     atom:    3    charge:   12.8272    magn:    2.0797    constr:    0.0000
     atom:    4    charge:   12.7751    magn:    2.7408    constr:    0.0000
     atom:    5    charge:    4.1175    magn:    0.0452    constr:    0.0000

     total cpu time spent up to now is      171.5 secs

     total energy              =   -1345.16391658 Ry
     Harris-Foulkes estimate   =   -1345.16559379 Ry
     estimated scf accuracy    <       0.00220250 Ry

     total magnetization       =     9.10 Bohr mag/cell
     absolute magnetization    =     9.44 Bohr mag/cell

     iteration # 11     ecut=   160.00 Ry     beta=0.70
     Davidson diagonalization with overlap
     ethr =  2.94E-06,  avg # of iterations =  1.7

     negative rho (up, down):  0.000E+00 2.423E-04
 
     Magnetic moment per site:
     atom:    1    charge:   12.8340    magn:    1.7210    constr:    0.0000
     atom:    2    charge:   12.8340    magn:    1.7210    constr:    0.0000
     atom:    3    charge:   12.8340    magn:    1.7210    constr:    0.0000
     atom:    4    charge:   12.7750    magn:    2.6962    constr:    0.0000
     atom:    5    charge:    4.1042    magn:    0.0139    constr:    0.0000

     total cpu time spent up to now is      185.8 secs

     total energy              =   -1345.16036083 Ry
     Harris-Foulkes estimate   =   -1345.16441960 Ry
     estimated scf accuracy    <       0.00284853 Ry

     total magnetization       =     9.33 Bohr mag/cell
     absolute magnetization    =     9.67 Bohr mag/cell

     iteration # 12     ecut=   160.00 Ry     beta=0.70
     Davidson diagonalization with overlap
     ethr =  2.94E-06,  avg # of iterations =  3.1

     negative rho (up, down):  0.000E+00 1.163E-04
 
     Magnetic moment per site:
     atom:    1    charge:   12.8413    magn:    1.3194    constr:    0.0000
     atom:    2    charge:   12.8413    magn:    1.3194    constr:    0.0000
     atom:    3    charge:   12.8413    magn:    1.3194    constr:    0.0000
     atom:    4    charge:   12.7743    magn:    2.6500    constr:    0.0000
     atom:    5    charge:    4.0883    magn:   -0.0225    constr:    0.0000

     total cpu time spent up to now is      204.4 secs

     total energy              =   -1345.16128090 Ry
     Harris-Foulkes estimate   =   -1345.16970087 Ry
     estimated scf accuracy    <       0.00118736 Ry

     total magnetization       =     8.19 Bohr mag/cell
     absolute magnetization    =     8.58 Bohr mag/cell

     iteration # 13     ecut=   160.00 Ry     beta=0.70
     Davidson diagonalization with overlap
     ethr =  1.72E-06,  avg # of iterations =  3.4

     negative rho (up, down):  0.000E+00 1.154E-04
 
     Magnetic moment per site:
     atom:    1    charge:   12.8434    magn:    1.2188    constr:    0.0000
     atom:    2    charge:   12.8434    magn:    1.2188    constr:    0.0000
     atom:    3    charge:   12.8434    magn:    1.2188    constr:    0.0000
     atom:    4    charge:   12.7742    magn:    2.6458    constr:    0.0000
     atom:    5    charge:    4.0840    magn:   -0.0324    constr:    0.0000

     total cpu time spent up to now is      226.1 secs

     total energy              =   -1345.16899284 Ry
     Harris-Foulkes estimate   =   -1345.17034942 Ry
     estimated scf accuracy    <       0.00057021 Ry

     total magnetization       =     7.23 Bohr mag/cell
     absolute magnetization    =     7.61 Bohr mag/cell

     iteration # 14     ecut=   160.00 Ry     beta=0.70
     Davidson diagonalization with overlap
     ethr =  8.26E-07,  avg # of iterations =  2.6

     negative rho (up, down):  0.000E+00 1.164E-04
 
     Magnetic moment per site:
     atom:    1    charge:   12.8422    magn:    1.2962    constr:    0.0000
     atom:    2    charge:   12.8422    magn:    1.2962    constr:    0.0000
     atom:    3    charge:   12.8422    magn:    1.2962    constr:    0.0000
     atom:    4    charge:   12.7743    magn:    2.6537    constr:    0.0000
     atom:    5    charge:    4.0860    magn:   -0.0269    constr:    0.0000

     total cpu time spent up to now is      242.2 secs

     total energy              =   -1345.16987669 Ry
     Harris-Foulkes estimate   =   -1345.16961748 Ry
     estimated scf accuracy    <       0.00124439 Ry

     total magnetization       =     6.99 Bohr mag/cell
     absolute magnetization    =     7.36 Bohr mag/cell

     iteration # 15     ecut=   160.00 Ry     beta=0.70
     Davidson diagonalization with overlap
     ethr =  8.26E-07,  avg # of iterations =  2.1

     negative rho (up, down):  0.000E+00 1.168E-04
 
     Magnetic moment per site:
     atom:    1    charge:   12.8426    magn:    1.3003    constr:    0.0000
     atom:    2    charge:   12.8426    magn:    1.3003    constr:    0.0000
     atom:    3    charge:   12.8426    magn:    1.3003    constr:    0.0000
     atom:    4    charge:   12.7748    magn:    2.6625    constr:    0.0000
     atom:    5    charge:    4.0853    magn:   -0.0310    constr:    0.0000

     total cpu time spent up to now is      257.6 secs

     total energy              =   -1345.17036396 Ry
     Harris-Foulkes estimate   =   -1345.17025803 Ry
     estimated scf accuracy    <       0.00071586 Ry

     total magnetization       =     7.18 Bohr mag/cell
     absolute magnetization    =     7.55 Bohr mag/cell

     iteration # 16     ecut=   160.00 Ry     beta=0.70
     Davidson diagonalization with overlap
     ethr =  8.26E-07,  avg # of iterations =  1.0

     negative rho (up, down):  0.000E+00 1.513E-04
 
     Magnetic moment per site:
     atom:    1    charge:   12.8387    magn:    1.4919    constr:    0.0000
     atom:    2    charge:   12.8387    magn:    1.4919    constr:    0.0000
     atom:    3    charge:   12.8387    magn:    1.4919    constr:    0.0000
     atom:    4    charge:   12.7742    magn:    2.6863    constr:    0.0000
     atom:    5    charge:    4.0908    magn:   -0.0189    constr:    0.0000

     total cpu time spent up to now is      271.3 secs

     total energy              =   -1345.16837491 Ry
     Harris-Foulkes estimate   =   -1345.17037970 Ry
     estimated scf accuracy    <       0.00067880 Ry

     total magnetization       =     7.20 Bohr mag/cell
     absolute magnetization    =     7.57 Bohr mag/cell

     iteration # 17     ecut=   160.00 Ry     beta=0.70
     Davidson diagonalization with overlap
     ethr =  8.26E-07,  avg # of iterations =  3.1

     negative rho (up, down):  0.000E+00 1.520E-04
 
     Magnetic moment per site:
     atom:    1    charge:   12.8385    magn:    1.4979    constr:    0.0000
     atom:    2    charge:   12.8385    magn:    1.4979    constr:    0.0000
     atom:    3    charge:   12.8385    magn:    1.4979    constr:    0.0000
     atom:    4    charge:   12.7742    magn:    2.6840    constr:    0.0000
     atom:    5    charge:    4.0912    magn:   -0.0174    constr:    0.0000

     total cpu time spent up to now is      290.9 secs

     total energy              =   -1345.17076780 Ry
     Harris-Foulkes estimate   =   -1345.17077513 Ry
     estimated scf accuracy    <       0.00074215 Ry

     total magnetization       =     7.72 Bohr mag/cell
     absolute magnetization    =     8.06 Bohr mag/cell

     iteration # 18     ecut=   160.00 Ry     beta=0.70
     Davidson diagonalization with overlap
     ethr =  8.26E-07,  avg # of iterations =  1.0

     negative rho (up, down):  0.000E+00 1.638E-04
 
     Magnetic moment per site:
     atom:    1    charge:   12.8363    magn:    1.5537    constr:    0.0000
     atom:    2    charge:   12.8363    magn:    1.5537    constr:    0.0000
     atom:    3    charge:   12.8363    magn:    1.5537    constr:    0.0000
     atom:    4    charge:   12.7738    magn:    2.6672    constr:    0.0000
     atom:    5    charge:    4.0961    magn:   -0.0035    constr:    0.0000

     total cpu time spent up to now is      305.1 secs

     total energy              =   -1345.17047775 Ry
     Harris-Foulkes estimate   =   -1345.17077105 Ry
     estimated scf accuracy    <       0.00063623 Ry

     total magnetization       =     7.73 Bohr mag/cell
     absolute magnetization    =     8.08 Bohr mag/cell

     iteration # 19     ecut=   160.00 Ry     beta=0.70
     Davidson diagonalization with overlap
     ethr =  8.26E-07,  avg # of iterations =  2.0

     negative rho (up, down):  0.000E+00 1.614E-04
 
     Magnetic moment per site:
     atom:    1    charge:   12.8362    magn:    1.5477    constr:    0.0000
     atom:    2    charge:   12.8362    magn:    1.5477    constr:    0.0000
     atom:    3    charge:   12.8362    magn:    1.5477    constr:    0.0000
     atom:    4    charge:   12.7738    magn:    2.6647    constr:    0.0000
     atom:    5    charge:    4.0960    magn:   -0.0032    constr:    0.0000

     total cpu time spent up to now is      320.2 secs

     total energy              =   -1345.17073735 Ry
     Harris-Foulkes estimate   =   -1345.17071344 Ry
     estimated scf accuracy    <       0.00011924 Ry

     total magnetization       =     7.85 Bohr mag/cell
     absolute magnetization    =     8.20 Bohr mag/cell

     iteration # 20     ecut=   160.00 Ry     beta=0.70
     Davidson diagonalization with overlap
     ethr =  1.73E-07,  avg # of iterations =  1.1

     negative rho (up, down):  0.000E+00 1.376E-04
 
     Magnetic moment per site:
     atom:    1    charge:   12.8372    magn:    1.4796    constr:    0.0000
     atom:    2    charge:   12.8372    magn:    1.4796    constr:    0.0000
     atom:    3    charge:   12.8372    magn:    1.4796    constr:    0.0000
     atom:    4    charge:   12.7735    magn:    2.6542    constr:    0.0000
     atom:    5    charge:    4.0943    magn:   -0.0053    constr:    0.0000

     total cpu time spent up to now is      334.4 secs

     total energy              =   -1345.17054417 Ry
     Harris-Foulkes estimate   =   -1345.17074115 Ry
     estimated scf accuracy    <       0.00010234 Ry

     total magnetization       =     7.84 Bohr mag/cell
     absolute magnetization    =     8.18 Bohr mag/cell

     iteration # 21     ecut=   160.00 Ry     beta=0.70
     Davidson diagonalization with overlap
     ethr =  1.48E-07,  avg # of iterations =  3.0

     negative rho (up, down):  0.000E+00 1.381E-04
 
     Magnetic moment per site:
     atom:    1    charge:   12.8371    magn:    1.4818    constr:    0.0000
     atom:    2    charge:   12.8371    magn:    1.4818    constr:    0.0000
     atom:    3    charge:   12.8371    magn:    1.4818    constr:    0.0000
     atom:    4    charge:   12.7736    magn:    2.6531    constr:    0.0000
     atom:    5    charge:    4.0947    magn:   -0.0043    constr:    0.0000

     total cpu time spent up to now is      352.5 secs

     total energy              =   -1345.17083763 Ry
     Harris-Foulkes estimate   =   -1345.17083971 Ry
     estimated scf accuracy    <       0.00001140 Ry

     total magnetization       =     7.66 Bohr mag/cell
     absolute magnetization    =     8.01 Bohr mag/cell

     iteration # 22     ecut=   160.00 Ry     beta=0.70
     Davidson diagonalization with overlap
     ethr =  1.65E-08,  avg # of iterations =  1.5

     negative rho (up, down):  0.000E+00 1.392E-04
 
     Magnetic moment per site:
     atom:    1    charge:   12.8373    magn:    1.4838    constr:    0.0000
     atom:    2    charge:   12.8373    magn:    1.4838    constr:    0.0000
     atom:    3    charge:   12.8373    magn:    1.4838    constr:    0.0000
     atom:    4    charge:   12.7737    magn:    2.6543    constr:    0.0000
     atom:    5    charge:    4.0947    magn:   -0.0043    constr:    0.0000

     total cpu time spent up to now is      366.8 secs

     total energy              =   -1345.17083836 Ry
     Harris-Foulkes estimate   =   -1345.17083858 Ry
     estimated scf accuracy    <       0.00000570 Ry

     total magnetization       =     7.67 Bohr mag/cell
     absolute magnetization    =     8.02 Bohr mag/cell

     iteration # 23     ecut=   160.00 Ry     beta=0.70
     Davidson diagonalization with overlap
     ethr =  8.26E-09,  avg # of iterations =  1.5

     negative rho (up, down):  0.000E+00 1.397E-04
 
     Magnetic moment per site:
     atom:    1    charge:   12.8373    magn:    1.4852    constr:    0.0000
     atom:    2    charge:   12.8373    magn:    1.4852    constr:    0.0000
     atom:    3    charge:   12.8373    magn:    1.4852    constr:    0.0000
     atom:    4    charge:   12.7737    magn:    2.6544    constr:    0.0000
     atom:    5    charge:    4.0948    magn:   -0.0040    constr:    0.0000

     total cpu time spent up to now is      381.3 secs

     total energy              =   -1345.17083919 Ry
     Harris-Foulkes estimate   =   -1345.17083919 Ry
     estimated scf accuracy    <       0.00000051 Ry

     total magnetization       =     7.67 Bohr mag/cell
     absolute magnetization    =     8.02 Bohr mag/cell

     iteration # 24     ecut=   160.00 Ry     beta=0.70
     Davidson diagonalization with overlap
     ethr =  7.40E-10,  avg # of iterations =  3.0

     negative rho (up, down):  0.000E+00 1.398E-04
 
     Magnetic moment per site:
     atom:    1    charge:   12.8373    magn:    1.4859    constr:    0.0000
     atom:    2    charge:   12.8373    magn:    1.4859    constr:    0.0000
     atom:    3    charge:   12.8373    magn:    1.4859    constr:    0.0000
     atom:    4    charge:   12.7737    magn:    2.6542    constr:    0.0000
     atom:    5    charge:    4.0947    magn:   -0.0041    constr:    0.0000

     total cpu time spent up to now is      398.7 secs

     total energy              =   -1345.17083952 Ry
     Harris-Foulkes estimate   =   -1345.17083951 Ry
     estimated scf accuracy    <       0.00000007 Ry

     total magnetization       =     7.68 Bohr mag/cell
     absolute magnetization    =     8.03 Bohr mag/cell

     iteration # 25     ecut=   160.00 Ry     beta=0.70
     Davidson diagonalization with overlap
     ethr =  9.57E-11,  avg # of iterations =  3.1

     negative rho (up, down):  0.000E+00 1.400E-04
 
     Magnetic moment per site:
     atom:    1    charge:   12.8373    magn:    1.4867    constr:    0.0000
     atom:    2    charge:   12.8373    magn:    1.4867    constr:    0.0000
     atom:    3    charge:   12.8373    magn:    1.4867    constr:    0.0000
     atom:    4    charge:   12.7738    magn:    2.6539    constr:    0.0000
     atom:    5    charge:    4.0948    magn:   -0.0038    constr:    0.0000

     total cpu time spent up to now is      416.7 secs

     total energy              =   -1345.17083952 Ry
     Harris-Foulkes estimate   =   -1345.17083965 Ry
     estimated scf accuracy    <       0.00000057 Ry

     total magnetization       =     7.68 Bohr mag/cell
     absolute magnetization    =     8.03 Bohr mag/cell

     iteration # 26     ecut=   160.00 Ry     beta=0.70
     Davidson diagonalization with overlap
     ethr =  9.57E-11,  avg # of iterations =  3.0

     negative rho (up, down):  0.000E+00 1.401E-04
 
     Magnetic moment per site:
     atom:    1    charge:   12.8373    magn:    1.4868    constr:    0.0000
     atom:    2    charge:   12.8373    magn:    1.4868    constr:    0.0000
     atom:    3    charge:   12.8373    magn:    1.4868    constr:    0.0000
     atom:    4    charge:   12.7737    magn:    2.6539    constr:    0.0000
     atom:    5    charge:    4.0948    magn:   -0.0037    constr:    0.0000

     total cpu time spent up to now is      435.0 secs

     End of self-consistent calculation

 ------ SPIN UP ------------


          k = 0.0000 0.0000 0.0000 ( 11459 PWs)   bands (ev):

   -69.9379 -69.2595 -69.2051 -69.2051 -35.9988 -35.9988 -35.9988 -35.6157
   -35.6157 -35.6157 -35.1584 -35.1584 -35.1584 -35.1518 -35.1518 -35.1518
     0.3455  11.4281  13.3302  13.3302  13.3302  13.8396  13.8396  14.1052
    14.1052  14.1052  16.0924  16.0924  16.0924  17.1987  17.1987  17.8463
    17.8463  18.3988  18.3988  18.3988  18.4661  18.4661  18.4661  18.4679
    21.8877  23.7552

          k = 0.0000 0.0000 0.1111 ( 11404 PWs)   bands (ev):

   -69.9378 -69.2581 -69.2066 -69.2051 -35.9978 -35.9978 -35.9974 -35.6145
   -35.6145 -35.6134 -35.1595 -35.1595 -35.1587 -35.1567 -35.1530 -35.1530
     0.4151  11.4855  12.9271  13.1103  13.1103  13.9190  13.9306  14.1575
    14.3442  14.3442  16.0278  16.1464  16.1464  17.2218  17.2575  17.8148
    17.8703  18.3141  18.3141  18.3987  18.3987  18.3990  18.4068  18.4650
    21.9638  23.2362

          k = 0.0000 0.0000 0.2222 ( 11396 PWs)   bands (ev):

   -69.9375 -69.2541 -69.2107 -69.2051 -35.9953 -35.9953 -35.9939 -35.6114
   -35.6114 -35.6074 -35.1693 -35.1623 -35.1623 -35.1595 -35.1559 -35.1559
     0.6002  11.3377  12.5043  12.7672  12.7672  14.0812  14.1354  14.3092
    14.7511  14.7511  15.8450  16.2723  16.2723  17.1945  17.2861  17.7246
    17.7689  17.9545  17.9545  18.2398  18.3993  18.4020  18.4020  18.4623
    22.1777  22.5169

          k = 0.0000 0.0000 0.3333 ( 11416 PWs)   bands (ev):

   -69.9372 -69.2485 -69.2167 -69.2050 -35.9924 -35.9924 -35.9901 -35.6079
   -35.6079 -35.5999 -35.1842 -35.1660 -35.1660 -35.1603 -35.1587 -35.1587
     0.8280  10.6696  12.4973  12.4973  12.8460  14.1977  14.4174  14.5425
    15.1429  15.1429  15.5762  16.3647  16.3647  16.9838  17.3215  17.3620
    17.5819  17.5819  17.6128  18.0175  18.3998  18.4150  18.4150  18.4594
    22.0443  22.5717

          k = 0.0000 0.0000 0.4444 ( 11440 PWs)   bands (ev):

   -69.9370 -69.2431 -69.2222 -69.2050 -35.9905 -35.9905 -35.9876 -35.6056
   -35.6056 -35.5946 -35.1943 -35.1686 -35.1686 -35.1608 -35.1604 -35.1604
     0.9888  10.1828  12.3530  12.3530  13.4007  14.1249  14.6317  14.8082
    15.2874  15.4352  15.4352  16.3332  16.3332  16.7319  16.9442  17.3466
    17.3748  17.3748  17.6402  17.8048  18.4000  18.4302  18.4302  18.4578
    21.9111  22.7895

          k = 0.0000 0.1111 0.1111 ( 11397 PWs)   bands (ev):

   -69.9377 -69.2567 -69.2072 -69.2058 -35.9981 -35.9968 -35.9951 -35.6256
   -35.6132 -35.5991 -35.1698 -35.1604 -35.1600 -35.1568 -35.1543 -35.1480
     0.4849  11.5393  12.6985  12.8568  12.9537  13.9962  14.0040  14.2126
    14.4872  14.5137  16.0041  16.1630  16.1928  17.2491  17.2731  17.7262
    17.7835  18.2263  18.2642  18.3186  18.3248  18.4104  18.4795  18.5430
    22.0244  23.4381

          k = 0.0000 0.1111 0.2222 ( 11427 PWs)   bands (ev):

   -69.9374 -69.2529 -69.2110 -69.2061 -35.9966 -35.9944 -35.9919 -35.6331
   -35.6101 -35.5831 -35.1851 -35.1650 -35.1632 -35.1579 -35.1573 -35.1436
     0.6702  11.3589  12.2605  12.6630  12.6765  14.1573  14.2068  14.3626
    14.8145  14.8591  15.8419  16.2815  16.2891  17.1600  17.3238  17.4383
    17.5845  17.9117  18.1403  18.1987  18.2425  18.3841  18.5588  18.6828
    22.2029  22.6702

          k = 0.0000 0.1111 0.3333 ( 11430 PWs)   bands (ev):

   -69.9371 -69.2473 -69.2168 -69.2061 -35.9938 -35.9916 -35.9892 -35.6369
   -35.6064 -35.5691 -35.2004 -35.1700 -35.1668 -35.1603 -35.1599 -35.1414
     0.8985  10.6614  12.1384  12.4161  12.9460  14.2828  14.4860  14.5916
    15.1753  15.2148  15.5805  16.2917  16.3935  16.9296  17.0980  17.2661
    17.4906  17.5580  17.8569  18.0738  18.1802  18.3777  18.6304  18.6763
    22.2619  22.4506

          k = 0.0000 0.1111 0.4444 ( 11432 PWs)   bands (ev):

   -69.9370 -69.2420 -69.2222 -69.2061 -35.9913 -35.9898 -35.9882 -35.6381
   -35.6039 -35.5607 -35.2101 -35.1732 -35.1694 -35.1621 -35.1613 -35.1405
     1.0598  10.1713  12.0377  12.2806  13.4694  14.2195  14.7011  14.8579
    15.2908  15.4591  15.4818  16.1376  16.3911  16.6630  16.8644  17.2559
    17.3560  17.4660  17.7084  17.8999  18.1440  18.3757  18.6543  18.6763
    22.1433  22.6125

          k = 0.0000 0.2222 0.2222 ( 11432 PWs)   bands (ev):

   -69.9372 -69.2492 -69.2127 -69.2082 -35.9968 -35.9922 -35.9897 -35.6517
   -35.6065 -35.5577 -35.2064 -35.1675 -35.1655 -35.1609 -35.1596 -35.1300
     0.8564  11.2947  11.5675  12.4408  12.7896  14.3578  14.3837  14.5052
    15.0144  15.1105  15.7600  16.2751  16.3631  17.0230  17.0281  17.3106
    17.4589  17.7428  18.0349  18.0891  18.2582  18.3354  18.7091  18.9948
    22.1162  22.9987

          k = 0.0000 0.2222 0.3333 ( 11406 PWs)   bands (ev):

   -69.9370 -69.2439 -69.2173 -69.2091 -35.9954 -35.9896 -35.9891 -35.6641
   -35.6024 -35.5370 -35.2245 -35.1704 -35.1687 -35.1645 -35.1619 -35.1210
     1.0864  10.6285  11.3677  12.2333  13.1803  14.5165  14.6613  14.7165
    15.2790  15.3909  15.5582  16.0663  16.4961  16.7581  16.8090  17.1023
    17.4759  17.6362  17.8034  17.9585  18.1972  18.3525  18.8363  19.0298
    21.9458  22.8237

          k = 0.0000 0.2222 0.4444 ( 11428 PWs)   bands (ev):

   -69.9368 -69.2388 -69.2223 -69.2093 -35.9931 -35.9901 -35.9880 -35.6702
   -35.5997 -35.5252 -35.2349 -35.1723 -35.1713 -35.1664 -35.1635 -35.1165
     1.2491  10.1368  11.3032  12.1146  13.6799  14.4694  14.8910  14.9681
    15.2996  15.4961  15.5999  15.8226  16.5519  16.5536  16.6118  17.0970
    17.2984  17.5292  17.8755  17.8803  18.1781  18.2119  18.9130  18.9635
    21.9130  22.7459

          k = 0.0000 0.3333 0.3333 ( 11430 PWs)   bands (ev):

   -69.9368 -69.2390 -69.2189 -69.2125 -35.9959 -35.9904 -35.9874 -35.6835
   -35.5978 -35.5117 -35.2441 -35.1712 -35.1704 -35.1690 -35.1644 -35.1062
     1.3188  10.5582  10.5959  12.0538  13.5743  14.8386  14.8436  14.8885
    15.4142  15.4604  15.5954  15.7407  16.5556  16.6485  16.6582  16.8989
    17.3285  17.6097  17.7589  17.9058  18.0442  18.5484  19.0048  19.1750
    21.2664  23.3558

          k = 0.0000 0.3333 0.4444 ( 11442 PWs)   bands (ev):

   -69.9367 -69.2339 -69.2225 -69.2141 -35.9948 -35.9925 -35.9859 -35.6936
   -35.5948 -35.4976 -35.2549 -35.1735 -35.1714 -35.1703 -35.1662 -35.0985
     1.4838  10.0900  10.5351  11.9484  14.0225  14.7994  15.0852  15.1285
    15.2955  15.5102  15.5584  15.7469  16.4021  16.4743  16.7781  16.8319
    17.2036  17.4003  17.6215  17.9746  18.1743  18.5815  19.1034  19.1304
    20.9082  23.4490

          k = 0.0000 0.4444 0.4444 ( 11460 PWs)   bands (ev):

   -69.9365 -69.2283 -69.2230 -69.2192 -35.9955 -35.9946 -35.9845 -35.7059
   -35.5915 -35.4824 -35.2659 -35.1749 -35.1746 -35.1690 -35.1681 -35.0889
     1.6507  10.0558  10.0563  11.8498  14.3682  15.0249  15.1861  15.2542
    15.2592  15.4093  15.5747  15.8596  16.3143  16.3961  16.5771  16.9873
    17.1141  17.2353  17.4102  17.8584  18.3844  18.9448  19.1756  19.2135
    20.1308  23.9984

          k = 0.1111 0.1111 0.1111 ( 11386 PWs)   bands (ev):

   -69.9376 -69.2554 -69.2072 -69.2072 -35.9974 -35.9974 -35.9929 -35.6377
   -35.5980 -35.5980 -35.1728 -35.1691 -35.1691 -35.1500 -35.1482 -35.1482
     0.5548  11.5894  12.5637  12.5637  12.8356  14.0720  14.0720  14.3899
    14.3899  14.7344  15.9888  16.2025  16.2025  17.2672  17.2672  17.6646
    17.6646  17.9915  18.1239  18.3446  18.3446  18.4204  18.6415  18.6415
    22.0745  23.5626

          k = 0.1111 0.1111 0.2222 ( 11427 PWs)   bands (ev):

   -69.9373 -69.2516 -69.2112 -69.2072 -35.9964 -35.9956 -35.9897 -35.6499
   -35.5951 -35.5776 -35.1894 -35.1794 -35.1708 -35.1503 -35.1453 -35.1430
     0.7404  11.3710  12.1431  12.2979  12.7589  14.2327  14.2777  14.4628
    14.7624  15.0135  15.8444  16.2850  16.2955  17.1765  17.2946  17.3843
    17.4081  17.7638  17.9275  18.2180  18.3457  18.3569  18.8025  18.8333
    22.2211  22.8349

          k = 0.1111 0.1111 0.3333 ( 11432 PWs)   bands (ev):

   -69.9371 -69.2462 -69.2169 -69.2072 -35.9937 -35.9936 -35.9877 -35.6574
   -35.5917 -35.5601 -35.2056 -35.1881 -35.1719 -35.1521 -35.1460 -35.1389
     0.9693  10.6461  12.0640  12.0768  13.0384  14.3640  14.5549  14.6652
    15.1713  15.2807  15.5910  16.2782  16.3445  16.9170  17.0713  17.1121
    17.4313  17.6067  17.7047  18.0901  18.2508  18.3344  18.6816  18.9929
    22.4191  22.4436

          k = 0.1111 0.1111 0.4444 ( 11422 PWs)   bands (ev):

   -69.9369 -69.2409 -69.2223 -69.2072 -35.9922 -35.9904 -35.9880 -35.6607
   -35.5895 -35.5499 -35.2157 -35.1931 -35.1725 -35.1532 -35.1475 -35.1369
     1.1311  10.1542  11.9341  12.0077  13.5366  14.3075  14.7711  14.9234
    15.3011  15.4553  15.5308  16.0758  16.2782  16.6261  16.9678  17.0975
    17.3345  17.4996  17.7097  17.9306  18.1849  18.3242  18.5244  19.0844
    22.3371  22.5625

          k = 0.1111 0.2222 0.2222 ( 11435 PWs)   bands (ev):

   -69.9371 -69.2481 -69.2127 -69.2094 -35.9968 -35.9947 -35.9873 -35.6701
   -35.5859 -35.5568 -35.2075 -35.1845 -35.1810 -35.1459 -35.1450 -35.1303
     0.9272  11.2970  11.4890  12.0699  12.8957  14.4282  14.4567  14.6314
    14.9393  15.2091  15.7704  16.2699  16.3405  17.0321  17.0922  17.2144
    17.3961  17.5445  17.7227  18.2485  18.2502  18.3222  19.0782  19.1110
    22.1898  23.1066

          k = 0.1111 0.2222 0.3333 ( 11448 PWs)   bands (ev):

   -69.9369 -69.2430 -69.2173 -69.2100 -35.9958 -35.9933 -35.9866 -35.6843
   -35.5814 -35.5354 -35.2248 -35.1932 -35.1832 -35.1468 -35.1436 -35.1211
     1.1579  10.5980  11.3113  11.9148  13.2658  14.5777  14.7282  14.8338
    15.2640  15.3769  15.5838  16.1025  16.3723  16.7655  16.9130  17.0317
    17.4423  17.4786  17.6150  18.1525  18.1981  18.2549  18.9971  19.3342
    22.0572  22.8863

          k = 0.1111 0.2222 0.4444 ( 11428 PWs)   bands (ev):

   -69.9368 -69.2379 -69.2224 -69.2102 -35.9942 -35.9920 -35.9875 -35.6914
   -35.5789 -35.5229 -35.2349 -35.1988 -35.1836 -35.1476 -35.1437 -35.1165
     1.3214  10.1073  11.2412  11.8217  13.7359  14.5294  14.9597  15.0713
    15.3036  15.4788  15.6040  15.8651  16.2992  16.5436  16.8773  16.9678
    17.3029  17.4484  17.7968  18.0508  18.1013  18.2337  18.7433  19.4757
    22.0154  22.8359

          k = 0.1111 0.3333 0.3333 ( 11438 PWs)   bands (ev):

   -69.9367 -69.2382 -69.2189 -69.2133 -35.9966 -35.9933 -35.9867 -35.7045
   -35.5759 -35.5112 -35.2430 -35.1946 -35.1918 -35.1450 -35.1436 -35.1063
     1.3916  10.5242  10.5392  11.7568  13.6361  14.8227  14.9040  15.0688
    15.3300  15.4722  15.5697  15.9052  16.3670  16.6365  16.7529  16.9587
    17.3281  17.3358  17.7958  18.0119  18.1092  18.3400  19.2240  19.4684
    21.3620  23.2566

          k = 0.1111 0.3333 0.4444 ( 11449 PWs)   bands (ev):

   -69.9366 -69.2333 -69.2225 -69.2147 -35.9959 -35.9942 -35.9871 -35.7150
   -35.5730 -35.4972 -35.2533 -35.1990 -35.1931 -35.1448 -35.1435 -35.0985
     1.5577  10.0488  10.4833  11.6624  14.0411  14.7951  15.0912  15.2864
    15.2945  15.5095  15.5625  15.9178  16.2900  16.4464  16.7284  16.9212
    17.2032  17.3111  17.8572  17.9769  18.0309  18.4894  19.0175  19.6597
    20.9542  23.3827

          k = 0.1111 0.4444 0.4444 ( 11442 PWs)   bands (ev):

   -69.9365 -69.2281 -69.2230 -69.2195 -35.9966 -35.9960 -35.9868 -35.7276
   -35.5697 -35.4823 -35.2635 -35.1988 -35.1984 -35.1438 -35.1435 -35.0889
     1.7259  10.0074  10.0094  11.5675  14.3233  14.9818  15.0455  15.2046
    15.5462  15.5519  15.6301  16.0539  16.2562  16.3622  16.5046  16.9242
    17.1744  17.2218  17.6752  17.9350  18.0859  18.8784  19.1709  19.7005
    20.1200  23.7366

          k = 0.2222 0.2222 0.2222 ( 11428 PWs)   bands (ev):

   -69.9370 -69.2449 -69.2127 -69.2127 -35.9968 -35.9968 -35.9856 -35.6957
   -35.5544 -35.5544 -35.2150 -35.1977 -35.1977 -35.1328 -35.1328 -35.1287
     1.1156  11.2709  11.3112  11.3112  13.1134  14.6225  14.6225  14.9421
    14.9421  15.3044  15.7317  16.2797  16.2797  16.9695  16.9695  17.2827
    17.2827  17.2925  17.4276  18.2289  18.2289  18.3823  19.4151  19.4151
    22.2838  23.0623

          k = 0.2222 0.2222 0.3333 ( 11443 PWs)   bands (ev):

   -69.9368 -69.2402 -69.2175 -69.2126 -35.9967 -35.9966 -35.9862 -35.7149
   -35.5517 -35.5284 -35.2290 -35.2106 -35.2004 -35.1328 -35.1250 -35.1192
     1.3490  10.5168  11.1353  11.2355  13.4789  14.7339  14.8920  15.1008
    15.2919  15.2959  15.6689  16.1482  16.2343  16.7244  16.7865  17.1820
    17.1850  17.3776  17.5210  18.1620  18.2201  18.3169  19.2422  19.7645
    22.2490  22.6938

          k = 0.2222 0.2222 0.4444 ( 11439 PWs)   bands (ev):

   -69.9367 -69.2354 -69.2224 -69.2126 -35.9967 -35.9949 -35.9883 -35.7248
   -35.5499 -35.5138 -35.2380 -35.2177 -35.2006 -35.1333 -35.1216 -35.1138
     1.5147  10.0324  11.0317  11.1936  13.8848  14.6647  15.1474  15.1482
    15.4033  15.4926  15.6118  15.9870  16.1839  16.4976  16.7717  17.0068
    17.1470  17.5603  17.7236  18.0970  18.1971  18.2426  18.8112  20.0148
    22.2605  22.3758

          k = 0.2222 0.3333 0.3333 ( 11431 PWs)   bands (ev):

   -69.9367 -69.2360 -69.2189 -69.2155 -35.9984 -35.9976 -35.9881 -35.7387
   -35.5392 -35.5100 -35.2409 -35.2159 -35.2125 -35.1239 -35.1225 -35.1064
     1.5864  10.4047  10.4371  11.0621  13.7834  14.8929  14.9974  15.1538
    15.4039  15.4572  15.8016  16.1028  16.2136  16.6141  16.6344  16.9622
    17.3042  17.3493  17.6464  18.1533  18.2327  18.2826  19.4030  19.9187
    21.6315  22.6894

          k = 0.2222 0.3333 0.4444 ( 11444 PWs)   bands (ev):

   -69.9366 -69.2316 -69.2225 -69.2163 -35.9988 -35.9977 -35.9906 -35.7515
   -35.5359 -35.4957 -35.2493 -35.2218 -35.2138 -35.1235 -35.1185 -35.0985
     1.7556   9.9478  10.3578  10.9828  14.0724  14.8049  15.0274  15.2238
    15.4901  15.7148  15.8752  16.1622  16.1880  16.4235  16.6205  16.8040
    17.2862  17.5125  17.7758  18.1068  18.1700  18.3885  19.0271  20.2486
    21.0541  22.6442

          k = 0.2222 0.4444 0.4444 ( 11438 PWs)   bands (ev):

   -69.9365 -69.2273 -69.2229 -69.2202 -35.9997 -35.9994 -35.9927 -35.7659
   -35.5315 -35.4821 -35.2576 -35.2215 -35.2208 -35.1186 -35.1184 -35.0889
     1.9278   9.8898   9.8971  10.8924  14.2097  14.8980  14.9498  15.0891
    15.6723  16.0015  16.1139  16.2025  16.2637  16.3989  16.5124  16.6598
    17.4071  17.4419  17.8217  17.9834  18.1017  18.7649  19.1474  19.9411
    20.4400  22.9023

          k = 0.3333 0.3333 0.3333 ( 11449 PWs)   bands (ev):

   -69.9366 -69.2327 -69.2188 -69.2188 -36.0005 -36.0005 -35.9917 -35.7665
   -35.5086 -35.5086 -35.2421 -35.2277 -35.2277 -35.1089 -35.1089 -35.1044
     1.8294  10.2647  10.2647  10.4019  13.9571  14.9421  14.9946  14.9946
    15.6694  15.6694  16.1353  16.2182  16.2182  16.5754  16.5754  16.7370
    17.4738  17.5588  17.5588  18.2043  18.2043  18.3428  19.7541  19.7541
    21.9453  21.9453

          k = 0.3333 0.3333 0.4444 ( 11465 PWs)   bands (ev):

   -69.9365 -69.2290 -69.2225 -69.2188 -36.0018 -36.0010 -35.9954 -35.7815
   -35.5076 -35.4916 -35.2471 -35.2358 -35.2291 -35.1077 -35.1011 -35.0972
     2.0034   9.8387  10.1795  10.3015  14.0870  14.8131  14.9325  15.0659
    15.7099  15.9686  16.2186  16.2973  16.3762  16.5447  16.5854  16.7069
    17.4822  17.6858  17.7215  18.2228  18.2883  18.3199  19.0867  20.2695
    21.0595  21.9464

          k = 0.3333 0.4444 0.4444 ( 11449 PWs)   bands (ev):

   -69.9365 -69.2260 -69.2229 -69.2214 -36.0031 -36.0031 -35.9994 -35.7979
   -35.4994 -35.4819 -35.2510 -35.2376 -35.2369 -35.0995 -35.0992 -35.0889
     2.1817   9.7651   9.7773  10.1656  14.0872  14.8237  14.8780  14.9433
    15.8649  16.0632  16.2514  16.2633  16.4468  16.8099  16.8160  16.9893
    17.6313  17.6608  17.7497  18.2083  18.2607  18.5491  19.0744  19.6186
    20.9371  21.9310

          k = 0.4444 0.4444 0.4444 ( 11452 PWs)   bands (ev):

   -69.9364 -69.2245 -69.2229 -69.2229 -36.0053 -36.0053 -36.0039 -35.8155
   -35.4817 -35.4817 -35.2475 -35.2453 -35.2453 -35.0892 -35.0892 -35.0885
     2.3651   9.6882   9.6882   9.7165  14.0124  14.7929  14.8334  14.8334
    16.0116  16.0116  16.2633  16.2633  16.3298  17.4467  17.4467  17.4747
    17.7443  17.7443  17.9042  18.3150  18.3150  18.3178  18.9399  18.9399
    21.2444  21.2444

 ------ SPIN DOWN ----------


          k = 0.0000 0.0000 0.0000 ( 11459 PWs)   bands (ev):

   -67.3637 -67.3029 -67.3029 -66.5337 -33.9869 -33.9869 -33.9869 -33.2307
   -33.2307 -33.2307 -33.1920 -33.1920 -33.1920 -32.6392 -32.6392 -32.6392
     0.4460  11.7276  13.3945  13.3945  13.3945  15.2106  15.2106  15.5333
    15.5333  15.5333  18.0409  18.0409  18.0409  18.7043  18.7043  20.2812
    20.2812  20.2812  20.4080  20.4080  20.5091  20.8705  20.8705  20.8705
    23.0631  23.9612

          k = 0.0000 0.0000 0.1111 ( 11404 PWs)   bands (ev):

   -67.3620 -67.3045 -67.3029 -66.5338 -33.9857 -33.9857 -33.9852 -33.2311
   -33.2297 -33.2297 -33.1931 -33.1931 -33.1924 -32.6421 -32.6404 -32.6404
     0.5150  11.7585  13.0940  13.2810  13.2810  15.2704  15.3099  15.5905
    15.6865  15.6865  17.9632  18.1033  18.1033  18.7108  18.8011  20.2355
    20.2355  20.2814  20.3475  20.3643  20.4462  20.6201  20.6201  20.8706
    23.1045  23.6076

          k = 0.0000 0.0000 0.2222 ( 11396 PWs)   bands (ev):

   -67.3573 -67.3090 -67.3029 -66.5340 -33.9826 -33.9826 -33.9808 -33.2321
   -33.2271 -33.2271 -33.1959 -33.1959 -33.1932 -32.6494 -32.6434 -32.6434
     0.6977  11.5208  12.8545  13.0417  13.0417  15.3355  15.5855  15.7542
    16.0357  16.0357  17.7478  18.2770  18.2770  18.7202  18.8136  19.9885
    19.9885  20.1242  20.1426  20.2198  20.2198  20.2819  20.3764  20.8707
    23.0980  23.2962

          k = 0.0000 0.0000 0.3333 ( 11416 PWs)   bands (ev):

   -67.3504 -67.3156 -67.3029 -66.5342 -33.9790 -33.9790 -33.9757 -33.2332
   -33.2243 -33.2243 -33.1991 -33.1991 -33.1942 -32.6578 -32.6469 -32.6469
     0.9221  10.8624  12.8207  12.8207  13.2716  15.2191  15.9594  15.9952
    16.4086  16.4086  17.4485  18.5179  18.5179  18.5891  18.7023  19.4682
    19.4682  19.7686  19.8261  20.0523  20.0523  20.2824  20.3214  20.8709
    22.9353  23.5436

          k = 0.0000 0.0000 0.4444 ( 11440 PWs)   bands (ev):

   -67.3439 -67.3220 -67.3028 -66.5344 -33.9767 -33.9767 -33.9724 -33.2339
   -33.2224 -33.2224 -33.2011 -33.2011 -33.1949 -32.6634 -32.6493 -32.6493
     1.0800  10.3963  12.6953  12.6953  13.9345  14.7946  16.2267  16.2615
    16.6607  16.6607  17.1793  18.4153  18.6438  18.7634  18.7634  19.0529
    19.0529  19.4978  19.6035  19.9430  19.9430  20.2828  20.2853  20.8711
    22.9012  23.7475

          k = 0.0000 0.1111 0.1111 ( 11397 PWs)   bands (ev):

   -67.3604 -67.3052 -67.3037 -66.5338 -33.9985 -33.9845 -33.9698 -33.2351
   -33.2287 -33.2278 -33.1978 -33.1942 -33.1868 -32.6458 -32.6416 -32.6400
     0.5839  11.7907  12.8619  13.1404  13.1799  15.3465  15.3811  15.6565
    15.8144  15.8152  17.9269  18.1260  18.1576  18.7519  18.7965  20.1515
    20.1881  20.2134  20.2569  20.3570  20.4300  20.5232  20.5309  20.7747
    23.1394  23.8583

          k = 0.0000 0.1111 0.2222 ( 11427 PWs)   bands (ev):

   -67.3557 -67.3093 -67.3040 -66.5340 -34.0078 -33.9814 -33.9536 -33.2423
   -33.2260 -33.2256 -33.2011 -33.1970 -33.1816 -32.6522 -32.6447 -32.6422
     0.7668  11.5460  12.5124  12.9608  13.0782  15.4216  15.6384  15.8233
    16.1191  16.1284  17.7346  18.2825  18.2969  18.6944  18.7297  19.8199
    19.9567  19.9613  20.0872  20.2024  20.3611  20.3775  20.4816  20.7401
    23.2069  23.4010

          k = 0.0000 0.1111 0.3333 ( 11430 PWs)   bands (ev):

   -67.3491 -67.3157 -67.3040 -66.5343 -34.0134 -33.9779 -33.9400 -33.2493
   -33.2232 -33.2230 -33.2033 -33.2002 -33.1783 -32.6581 -32.6482 -32.6459
     0.9916  10.8681  12.4338  12.7534  13.4030  15.3130  16.0056  16.0652
    16.4576  16.4681  17.4440  18.3442  18.4935  18.5274  18.6581  19.4835
    19.4999  19.7217  19.8937  19.9370  20.2477  20.3625  20.3842  20.7409
    23.1200  23.4628

          k = 0.0000 0.1111 0.4444 ( 11432 PWs)   bands (ev):

   -67.3426 -67.3219 -67.3040 -66.5344 -34.0160 -33.9755 -33.9322 -33.2536
   -33.2214 -33.2212 -33.2046 -33.2022 -33.1768 -32.6616 -32.6506 -32.6488
     1.1498  10.3977  12.3628  12.6341  14.0096  14.9057  16.3025  16.3038
    16.6880  16.7029  17.1800  18.1819  18.3305  18.7853  18.7914  19.0848
    19.3043  19.5820  19.6172  19.8224  20.1427  20.3058  20.3642  20.7424
    23.1028  23.5990

          k = 0.0000 0.2222 0.2222 ( 11432 PWs)   bands (ev):

   -67.3515 -67.3111 -67.3063 -66.5342 -34.0291 -33.9784 -33.9270 -33.2584
   -33.2257 -33.2232 -33.2048 -33.1999 -33.1671 -32.6560 -32.6479 -32.6421
     0.9503  11.4990  11.8221  12.7776  13.2515  15.6150  15.7740  15.9971
    16.3295  16.3635  17.6308  18.2672  18.3693  18.5059  18.5784  19.6835
    19.7678  19.8179  19.9186  20.0932  20.4435  20.4472  20.5154  20.6845
    23.1190  23.9531

          k = 0.0000 0.2222 0.3333 ( 11406 PWs)   bands (ev):

   -67.3453 -67.3161 -67.3072 -66.5344 -34.0442 -33.9750 -33.9059 -33.2720
   -33.2255 -33.2199 -33.2090 -33.2030 -33.1559 -32.6578 -32.6515 -32.6446
     1.1761  10.8717  11.6509  12.5967  13.6634  15.5696  16.0778  16.2379
    16.5922  16.6214  17.4051  17.9795  18.2656  18.5835  18.5884  19.5183
    19.5365  19.7116  19.7448  19.8914  20.4105  20.4109  20.4836  20.6808
    23.0113  23.7342

          k = 0.0000 0.2222 0.4444 ( 11428 PWs)   bands (ev):

   -67.3392 -67.3218 -67.3074 -66.5345 -34.0519 -33.9727 -33.8942 -33.2797
   -33.2243 -33.2179 -33.2129 -33.2050 -33.1500 -32.6571 -32.6540 -32.6478
     1.3353  10.3959  11.6139  12.4901  14.2181  15.2000  16.3417  16.4880
    16.7631  16.8469  17.1756  17.7078  18.1340  18.6115  18.8658  19.1778
    19.3752  19.6213  19.6726  19.8135  20.3952  20.4156  20.4750  20.5140
    23.0486  23.6570

          k = 0.0000 0.3333 0.3333 ( 11430 PWs)   bands (ev):

   -67.3397 -67.3177 -67.3109 -66.5345 -34.0665 -33.9717 -33.8797 -33.2899
   -33.2279 -33.2164 -33.2162 -33.2063 -33.1383 -32.6555 -32.6553 -32.6448
     1.4036  10.8318  10.8967  12.4373  14.0753  15.8682  16.0259  16.4606
    16.7894  16.7989  17.2929  17.6315  18.0633  18.5076  18.7327  19.3586
    19.5304  19.5343  19.7313  19.9247  20.1457  20.5071  20.5133  20.8571
    22.5354  24.3131

          k = 0.0000 0.3333 0.4444 ( 11442 PWs)   bands (ev):

   -67.3339 -67.3217 -67.3126 -66.5346 -34.0783 -33.9695 -33.8654 -33.2996
   -33.2282 -33.2223 -33.2141 -33.2083 -33.1287 -32.6578 -32.6521 -32.6468
     1.5644  10.3851  10.8475  12.3417  14.5567  15.6032  16.2202  16.6895
    16.8592  17.0663  17.1525  17.3658  17.9796  18.4023  18.9742  19.2073
    19.2663  19.5026  19.5849  20.0346  20.0958  20.5253  20.5911  20.7759
    22.3308  24.3165

          k = 0.0000 0.4444 0.4444 ( 11460 PWs)   bands (ev):

   -67.3279 -67.3221 -67.3181 -66.5347 -34.0922 -33.9674 -33.8497 -33.3103
   -33.2304 -33.2287 -33.2117 -33.2104 -33.1171 -32.6604 -32.6484 -32.6467
     1.7267  10.3715  10.3755  12.2520  14.9224  15.9621  15.9821  16.8458
    16.9114  16.9141  17.1164  17.5506  17.9117  18.1331  19.0466  19.0616
    19.3042  19.4723  19.5334  19.7151  20.2625  20.5380  20.7782  20.8773
    21.8695  24.8264

          k = 0.1111 0.1111 0.1111 ( 11386 PWs)   bands (ev):

   -67.3588 -67.3052 -67.3052 -66.5339 -34.0118 -33.9687 -33.9687 -33.2361
   -33.2308 -33.2308 -33.1957 -33.1957 -33.1829 -32.6496 -32.6409 -32.6409
     0.6530  11.8236  12.7769  12.7769  13.1933  15.4346  15.4346  15.7976
    15.7976  15.9797  17.8991  18.1705  18.1705  18.7703  18.7703  20.0054
    20.1164  20.1420  20.1420  20.4002  20.4002  20.4018  20.6831  20.6831
    23.1808  24.0625

          k = 0.1111 0.1111 0.2222 ( 11427 PWs)   bands (ev):

   -67.3543 -67.3095 -67.3052 -66.5341 -34.0261 -33.9658 -33.9479 -33.2435
   -33.2381 -33.2288 -33.1956 -33.1928 -33.1772 -32.6553 -32.6432 -32.6427
     0.8361  11.5660  12.4033  12.5859  13.2013  15.5070  15.6956  15.9212
    16.1317  16.2321  17.7283  18.2743  18.2892  18.6798  18.6801  19.6473
    19.7880  19.9247  19.9925  20.2985  20.4488  20.4710  20.5378  20.7272
    23.2582  23.5521

          k = 0.1111 0.1111 0.3333 ( 11432 PWs)   bands (ev):

   -67.3478 -67.3158 -67.3052 -66.5343 -34.0358 -33.9626 -33.9307 -33.2517
   -33.2457 -33.2241 -33.1938 -33.1925 -33.1729 -32.6593 -32.6472 -32.6458
     1.0612  10.8678  12.3696  12.3988  13.5153  15.4057  16.0630  16.1445
    16.4743  16.5165  17.4468  18.2329  18.3235  18.6232  18.6582  19.2548
    19.5472  19.7153  19.8094  20.1296  20.3504  20.3761  20.5335  20.6670
    23.2541  23.4786

          k = 0.1111 0.1111 0.4444 ( 11422 PWs)   bands (ev):

   -67.3415 -67.3219 -67.3051 -66.5344 -34.0406 -33.9605 -33.9210 -33.2565
   -33.2504 -33.2200 -33.1940 -33.1924 -33.1708 -32.6602 -32.6519 -32.6476
     1.2198  10.3939  12.2891  12.3292  14.0811  15.0140  16.3633  16.3819
    16.6152  16.8199  17.1837  17.9894  18.2134  18.7870  18.8089  19.0181
    19.2797  19.6461  19.6872  20.0046  20.1063  20.3067  20.5539  20.6458
    23.2673  23.5687

          k = 0.1111 0.2222 0.2222 ( 11435 PWs)   bands (ev):

   -67.3502 -67.3111 -67.3075 -66.5342 -34.0491 -33.9569 -33.9262 -33.2589
   -33.2403 -33.2390 -33.1906 -33.1876 -33.1657 -32.6593 -32.6450 -32.6423
     1.0199  11.5140  11.7662  12.3868  13.3759  15.7043  15.8408  16.1108
    16.3310  16.3847  17.6414  18.2105  18.2626  18.5889  18.6014  19.4314
    19.5361  19.8333  19.8426  20.2435  20.4420  20.4842  20.7322  20.8283
    23.2301  23.9472

          k = 0.1111 0.2222 0.3333 ( 11448 PWs)   bands (ev):

   -67.3442 -67.3161 -67.3082 -66.5344 -34.0660 -33.9530 -33.9045 -33.2735
   -33.2499 -33.2380 -33.1878 -33.1854 -33.1551 -32.6602 -32.6480 -32.6442
     1.2463  10.8573  11.6114  12.2607  13.7619  15.6577  16.1553  16.3301
    16.5269  16.6651  17.4260  17.9404  18.1447  18.6003  18.6605  19.2780
    19.3042  19.7068  19.8061  20.0893  20.3801  20.4332  20.7260  20.8359
    23.1211  23.7695

          k = 0.1111 0.2222 0.4444 ( 11428 PWs)   bands (ev):

   -67.3382 -67.3218 -67.3084 -66.5345 -34.0749 -33.9508 -33.8921 -33.2815
   -33.2557 -33.2368 -33.1860 -33.1852 -33.1493 -32.6575 -32.6525 -32.6462
     1.4061  10.3799  11.5684  12.1833  14.2830  15.2975  16.4052  16.5683
    16.6591  16.9774  17.1954  17.6107  18.0536  18.6265  18.8408  19.0775
    19.1791  19.7029  19.8058  19.9537  20.3193  20.3828  20.4879  20.8716
    23.1469  23.7261

          k = 0.1111 0.3333 0.3333 ( 11438 PWs)   bands (ev):

   -67.3388 -67.3177 -67.3117 -66.5345 -34.0891 -33.9485 -33.8793 -33.2923
   -33.2526 -33.2492 -33.1848 -33.1830 -33.1380 -32.6592 -32.6492 -32.6441
     1.4748  10.8122  10.8545  12.1295  14.1547  15.9504  16.0732  16.5537
    16.6810  16.8730  17.3266  17.6478  17.9840  18.5070  18.7403  19.0984
    19.3922  19.5425  19.9237  19.9246  20.2616  20.4109  20.8981  20.9776
    22.5958  24.2108

          k = 0.1111 0.3333 0.4444 ( 11449 PWs)   bands (ev):

   -67.3332 -67.3217 -67.3132 -66.5346 -34.1014 -33.9463 -33.8650 -33.3024
   -33.2585 -33.2515 -33.1833 -33.1825 -33.1285 -32.6573 -32.6496 -32.6455
     1.6365  10.3566  10.8089  12.0485  14.6042  15.6784  16.2440  16.7771
    16.8626  17.0622  17.1773  17.4108  17.9281  18.4035  18.8153  18.9911
    19.3557  19.5848  19.7341  19.9963  20.1408  20.5091  20.7317  21.0726
    22.3518  24.2445

          k = 0.1111 0.4444 0.4444 ( 11442 PWs)   bands (ev):

   -67.3276 -67.3221 -67.3184 -66.5347 -34.1157 -33.9440 -33.8496 -33.3135
   -33.2605 -33.2599 -33.1819 -33.1817 -33.1170 -32.6578 -32.6467 -32.6454
     1.7999  10.3370  10.3385  11.9659  14.9331  15.9994  16.0392  16.8468
    16.9391  17.0012  17.1563  17.6198  17.8808  18.1380  18.6864  19.0341
    19.4387  19.5798  19.6273  19.9197  19.9906  20.7268  20.8650  21.1308
    21.8233  24.5852

          k = 0.2222 0.2222 0.2222 ( 11428 PWs)   bands (ev):

   -67.3465 -67.3110 -67.3110 -66.5344 -34.0778 -33.9242 -33.9242 -33.2613
   -33.2613 -33.2586 -33.1746 -33.1746 -33.1598 -32.6623 -32.6427 -32.6427
     1.2050  11.5055  11.6330  11.6330  13.6117  15.9656  15.9656  16.3809
    16.3959  16.3959  17.6132  18.0858  18.0858  18.6333  18.6333  19.2212
    19.2254  19.7408  19.7408  20.3379  20.4368  20.4368  21.0798  21.0798
    23.3970  23.8152

          k = 0.2222 0.2222 0.3333 ( 11443 PWs)   bands (ev):

   -67.3410 -67.3163 -67.3110 -66.5345 -34.0999 -33.9220 -33.8976 -33.2784
   -33.2761 -33.2615 -33.1696 -33.1642 -33.1503 -32.6613 -32.6442 -32.6431
     1.4334  10.8141  11.4939  11.5401  14.0010  15.8916  16.3473  16.3799
    16.5657  16.7437  17.4588  17.8191  17.9645  18.6055  18.6848  18.9742
    19.2130  19.6808  19.7892  20.2381  20.3906  20.4167  20.9555  21.2851
    23.3371  23.6136

          k = 0.2222 0.2222 0.4444 ( 11439 PWs)   bands (ev):

   -67.3355 -67.3217 -67.3110 -66.5346 -34.1116 -33.9205 -33.8828 -33.2878
   -33.2848 -33.2625 -33.1679 -33.1593 -33.1442 -32.6567 -32.6490 -32.6435
     1.5950  10.3371  11.4090  11.5218  14.4637  15.5468  16.4096  16.6962
    16.7868  17.0771  17.2508  17.4543  17.9241  18.6152  18.7200  18.7983
    19.2515  19.7831  19.8992  20.1206  20.3445  20.3566  20.5387  21.3914
    23.3744  23.4638

          k = 0.2222 0.3333 0.3333 ( 11431 PWs)   bands (ev):

   -67.3363 -67.3177 -67.3141 -66.5346 -34.1267 -33.9096 -33.8784 -33.2982
   -33.2827 -33.2788 -33.1587 -33.1568 -33.1371 -32.6587 -32.6433 -32.6423
     1.6649  10.7515  10.7596  11.4195  14.3573  16.1250  16.1724  16.5858
    16.7953  16.9204  17.4224  17.6824  17.8428  18.5145  18.6472  18.7607
    19.3523  19.6419  19.8902  20.1758  20.3800  20.3971  21.0666  21.4857
    22.7511  23.7076

          k = 0.2222 0.3333 0.4444 ( 11444 PWs)   bands (ev):

   -67.3314 -67.3217 -67.3150 -66.5346 -34.1411 -33.9067 -33.8638 -33.3094
   -33.2914 -33.2832 -33.1563 -33.1521 -33.1280 -32.6541 -32.6451 -32.6420
     1.8292  10.2851  10.7135  11.3577  14.7230  15.8566  16.2685  16.8382
    17.0104  17.0608  17.3085  17.5569  17.8456  18.4188  18.5334  18.7258
    19.4676  19.7470  19.9622  20.0607  20.3208  20.4539  20.7318  21.6892
    22.3539  23.6878

          k = 0.2222 0.4444 0.4444 ( 11438 PWs)   bands (ev):

   -67.3267 -67.3220 -67.3192 -66.5347 -34.1571 -33.9027 -33.8495 -33.3214
   -33.2951 -33.2944 -33.1509 -33.1506 -33.1169 -32.6512 -32.6427 -32.6422
     1.9958  10.2476  10.2518  11.2848  14.9443  16.0835  16.1698  16.6777
    17.2032  17.2398  17.3382  17.7450  17.8430  18.1947  18.3671  18.7273
    19.6938  19.7347  19.8888  19.9595  20.2297  20.6461  20.8146  21.6133
    21.8560  23.8900

          k = 0.3333 0.3333 0.3333 ( 11449 PWs)   bands (ev):

   -67.3327 -67.3177 -67.3177 -66.5346 -34.1573 -33.8774 -33.8774 -33.3059
   -33.3059 -33.3001 -33.1406 -33.1406 -33.1335 -32.6543 -32.6403 -32.6403
     1.9010  10.6408  10.6408  10.7349  14.6291  16.0838  16.4464  16.4464
    17.0956  17.0956  17.5101  17.7469  17.7469  18.4502  18.5254  18.5254
    19.5062  19.8513  19.8513  20.2893  20.3758  20.3758  21.3672  21.3672
    22.9687  22.9687

          k = 0.3333 0.3333 0.4444 ( 11465 PWs)   bands (ev):

   -67.3286 -67.3216 -67.3176 -66.5346 -34.1739 -33.8767 -33.8596 -33.3186
   -33.3147 -33.3077 -33.1379 -33.1314 -33.1258 -32.6488 -32.6409 -32.6389
     2.0692  10.2048  10.5716  10.6652  14.8542  16.0351  16.2874  16.6326
    17.3154  17.3325  17.5107  17.7313  17.8240  18.2896  18.4212  18.5171
    19.6665  19.9040  20.0200  20.2097  20.3904  20.4079  20.7758  21.7173
    22.3419  23.1527

          k = 0.3333 0.4444 0.4444 ( 11449 PWs)   bands (ev):

   -67.3254 -67.3220 -67.3204 -66.5346 -34.1919 -33.8682 -33.8493 -33.3302
   -33.3216 -33.3208 -33.1286 -33.1283 -33.1168 -32.6436 -32.6385 -32.6383
     2.2407  10.1488  10.1583  10.5574  14.9331  16.1685  16.2821  16.4794
    17.5925  17.5995  17.6671  17.8599  17.8663  18.1332  18.2999  18.4923
    19.8636  19.9510  20.0415  20.1411  20.4196  20.4851  20.7226  21.2310
    22.3658  23.1193

          k = 0.4444 0.4444 0.4444 ( 11452 PWs)   bands (ev):

   -67.3238 -67.3220 -67.3220 -66.5346 -34.2110 -33.8492 -33.8492 -33.3359
   -33.3359 -33.3349 -33.1171 -33.1171 -33.1162 -32.6381 -32.6360 -32.6360
     2.4164  10.0866  10.0866  10.1091  14.9149  16.2385  16.3298  16.3298
    17.8947  17.8947  17.9809  17.9809  17.9853  18.0020  18.3663  18.3663
    20.0129  20.0708  20.0708  20.2601  20.3444  20.3444  20.7348  20.7348
    22.6685  22.6685

     the Fermi energy is    18.7319 ev

!    total energy              =   -1345.17083963 Ry
     Harris-Foulkes estimate   =   -1345.17083963 Ry
     estimated scf accuracy    <          1.0E-08 Ry

     total all-electron energy =    -10291.772475 Ry

     The total energy is the sum of the following terms:

     one-electron contribution =    -446.73641491 Ry
     hartree contribution      =     269.20115719 Ry
     xc contribution           =    -117.08690891 Ry
     ewald contribution        =    -711.61403732 Ry
     one-center paw contrib.   =    -338.93472511 Ry
     smearing contrib. (-TS)   =       0.00008942 Ry

     total magnetization       =     7.68 Bohr mag/cell
     absolute magnetization    =     8.03 Bohr mag/cell

     convergence has been achieved in  26 iterations

     Forces acting on atoms (Ry/au):


     negative rho (up, down):  0.000E+00 1.401E-04
     atom    1 type  1   force =     0.00000000    0.00000000    0.00000000
     atom    2 type  1   force =     0.00000000    0.00000000    0.00000000
     atom    3 type  1   force =     0.00000000    0.00000000    0.00000000
     atom    4 type  1   force =     0.00000000    0.00000000    0.00000000
     atom    5 type  2   force =     0.00000000    0.00000000    0.00000000

     Total force =     0.000000     Total SCF correction =     0.000000


     entering subroutine stress ...


     negative rho (up, down):  0.000E+00 1.401E-04
          total   stress  (Ry/bohr**3)                   (kbar)     P=  149.41
   0.00101566   0.00000000   0.00000000        149.41      0.00      0.00
   0.00000000   0.00101566   0.00000000          0.00    149.41      0.00
   0.00000000   0.00000000   0.00101566          0.00      0.00    149.41


     Writing output data file config.save
 
     init_run     :      5.97s CPU      6.14s WALL (       1 calls)
     electrons    :    420.63s CPU    428.42s WALL (       1 calls)
     forces       :      1.56s CPU      1.63s WALL (       1 calls)
     stress       :      5.26s CPU      5.37s WALL (       1 calls)

     Called by init_run:
     wfcinit      :      4.81s CPU      4.87s WALL (       1 calls)
     potinit      :      0.57s CPU      0.59s WALL (       1 calls)

     Called by electrons:
     c_bands      :    336.44s CPU    341.28s WALL (      26 calls)
     sum_band     :     66.82s CPU     68.53s WALL (      26 calls)
     v_of_rho     :      2.76s CPU      2.81s WALL (      27 calls)
     newd         :      3.71s CPU      4.44s WALL (      27 calls)
     mix_rho      :      0.76s CPU      0.77s WALL (      26 calls)

     Called by c_bands:
     init_us_2    :      6.79s CPU      6.96s WALL (    3850 calls)
     cegterg      :    312.64s CPU    317.01s WALL (    1820 calls)

     Called by sum_band:
     sum_band:bec :      0.06s CPU      0.06s WALL (    1820 calls)
     addusdens    :      8.90s CPU      9.74s WALL (      26 calls)

     Called by *egterg:
     h_psi        :    223.04s CPU    226.26s WALL (    6337 calls)
     s_psi        :     10.49s CPU     10.63s WALL (    6337 calls)
     g_psi        :      1.90s CPU      1.92s WALL (    4447 calls)
     cdiaghg      :     19.30s CPU     19.51s WALL (    6267 calls)

     Called by h_psi:
     add_vuspsi   :     10.19s CPU     10.38s WALL (    6337 calls)

     General routines
     calbec       :     16.34s CPU     16.65s WALL (    8507 calls)
     fft          :      1.48s CPU      1.50s WALL (     871 calls)
     ffts         :      0.11s CPU      0.11s WALL (     106 calls)
     fftw         :    198.07s CPU    200.96s WALL (  443294 calls)
     interpolate  :      0.39s CPU      0.39s WALL (     106 calls)
     davcio       :      0.13s CPU      0.59s WALL (      70 calls)
 
     Parallel routines
     fft_scatter  :     71.49s CPU     72.60s WALL (  444271 calls)

     PAW routines
     PAW_pot      :     10.39s CPU     10.82s WALL (      27 calls)
     PAW_symme    :      0.04s CPU      0.04s WALL (      53 calls)
 
     PWSCF        :  7m14.23s CPU     7m23.07s WALL

 
   This run was terminated on:  23:50: 8  26Oct2020            

=------------------------------------------------------------------------------=
   JOB DONE.
=------------------------------------------------------------------------------=
