
     Program PWSCF v.5.2.0 starts on 27Oct2020 at  0:39:11 

     This program is part of the open-source Quantum ESPRESSO suite
     for quantum simulation of materials; please cite
         "P. Giannozzi et al., J. Phys.:Condens. Matter 21 395502 (2009);
          URL http://www.quantum-espresso.org", 
     in publications or presentations arising from this work. More details at
     http://www.quantum-espresso.org/quote

     Parallel version (MPI), running on     6 processors
     R & G space division:  proc/nbgrp/npool/nimage =       6
     Reading input from 15.in

     Current dimensions of program PWSCF are:
     Max number of different atomic species (ntypx) = 10
     Max number of k-points (npk) =  40000
     Max angular momentum in pseudopotentials (lmaxx) =  3

     IMPORTANT: XC functional enforced from input :
     Exchange-correlation      = PBE ( 1  4  3  4 0 0)
     Any further DFT definition will be discarded
     Please, verify this is what you really want

               file Fe_PSEUDO: wavefunction(s)  3P 3D renormalized
               file N_PSEUDO: wavefunction(s)  2S renormalized

     Subspace diagonalization in iterative solution of the eigenvalue problem:
     a serial algorithm will be used

 
     Parallelization info
     --------------------
     sticks:   dense  smooth     PW     G-vecs:    dense   smooth      PW
     Min         766     511    140                39080    21270    3056
     Max         767     512    141                39085    21289    3059
     Sum        4597    3069    845               234489   127675   18349
 
     Generating pointlists ...
     new r_m :   0.2063 (alat units)  1.4318 (a.u.) for type    1
     new r_m :   0.2063 (alat units)  1.4318 (a.u.) for type    2


     bravais-lattice index     =            0
     lattice parameter (alat)  =       6.9422  a.u.
     unit-cell volume          =     334.5777 (a.u.)^3
     number of atoms/cell      =            5
     number of atomic types    =            2
     number of electrons       =        69.00
     number of Kohn-Sham states=           42
     kinetic-energy cutoff     =     200.0000  Ry
     charge density cutoff     =    1200.0000  Ry
     convergence threshold     =      1.0E-08
     mixing beta               =       0.7000
     number of iterations used =            8  plain     mixing
     Exchange-correlation      = PBE ( 1  4  3  4 0 0)

     celldm(1)=   6.942230  celldm(2)=   0.000000  celldm(3)=   0.000000
     celldm(4)=   0.000000  celldm(5)=   0.000000  celldm(6)=   0.000000

     crystal axes: (cart. coord. in units of alat)
               a(1) = (   1.000000   0.000000   0.000000 )  
               a(2) = (   0.000000   1.000000   0.000000 )  
               a(3) = (   0.000000   0.000000   1.000000 )  

     reciprocal axes: (cart. coord. in units 2 pi/alat)
               b(1) = (  1.000000  0.000000  0.000000 )  
               b(2) = (  0.000000  1.000000  0.000000 )  
               b(3) = (  0.000000  0.000000  1.000000 )  


     PseudoPot. # 1 for Fe read from file:
     pseudo/Fe_PSEUDO
     MD5 check sum: e30d5f36a6f0cb983ee41abee56170da
     Pseudo is Projector augmented-wave + core cor, Zval = 16.0
     Generated using "atomic" code by A. Dal Corso  v.6.3
     Shape of augmentation charge: PSQ
     Using radial grid of 1191 points,  6 beta functions with: 
                l(1) =   0
                l(2) =   0
                l(3) =   1
                l(4) =   1
                l(5) =   2
                l(6) =   2
     Q(r) pseudized with 0 coefficients 


     PseudoPot. # 2 for  N read from file:
     pseudo/N_PSEUDO
     MD5 check sum: 14c48229446f9f2d411169a3abcbc3fa
     Pseudo is Projector augmented-wave + core cor, Zval =  5.0
     Generated using "atomic" code by A. Dal Corso  v.6.3
     Shape of augmentation charge: PSQ
     Using radial grid of 1085 points,  4 beta functions with: 
                l(1) =   0
                l(2) =   0
                l(3) =   1
                l(4) =   1
     Q(r) pseudized with 0 coefficients 


     atomic species   valence    mass     pseudopotential
        Fe            16.00    55.84500     Fe( 1.00)
        N              5.00    14.00650      N( 1.00)

     Starting magnetic structure 
     atomic species   magnetization
        Fe           0.500
        N           -0.010

     48 Sym. Ops., with inversion, found



   Cartesian axes

     site n.     atom                  positions (alat units)
         1           Fe  tau(   1) = (   0.0000000   0.5000000   0.5000000  )
         2           Fe  tau(   2) = (   0.5000000   0.5000000   0.0000000  )
         3           Fe  tau(   3) = (   0.5000000   0.0000000   0.5000000  )
         4           Fe  tau(   4) = (   0.0000000   0.0000000   0.0000000  )
         5           N   tau(   5) = (   0.5000000   0.5000000   0.5000000  )

     number of k points=    70  Marzari-Vanderbilt smearing, width (Ry)=  0.0050
                       cart. coord. in units 2pi/alat
        k(    1) = (   0.0000000   0.0000000   0.0000000), wk =   0.0013717
        k(    2) = (   0.0000000   0.0000000   0.1111111), wk =   0.0082305
        k(    3) = (   0.0000000   0.0000000   0.2222222), wk =   0.0082305
        k(    4) = (   0.0000000   0.0000000   0.3333333), wk =   0.0082305
        k(    5) = (   0.0000000   0.0000000   0.4444444), wk =   0.0082305
        k(    6) = (   0.0000000   0.1111111   0.1111111), wk =   0.0164609
        k(    7) = (   0.0000000   0.1111111   0.2222222), wk =   0.0329218
        k(    8) = (   0.0000000   0.1111111   0.3333333), wk =   0.0329218
        k(    9) = (   0.0000000   0.1111111   0.4444444), wk =   0.0329218
        k(   10) = (   0.0000000   0.2222222   0.2222222), wk =   0.0164609
        k(   11) = (   0.0000000   0.2222222   0.3333333), wk =   0.0329218
        k(   12) = (   0.0000000   0.2222222   0.4444444), wk =   0.0329218
        k(   13) = (   0.0000000   0.3333333   0.3333333), wk =   0.0164609
        k(   14) = (   0.0000000   0.3333333   0.4444444), wk =   0.0329218
        k(   15) = (   0.0000000   0.4444444   0.4444444), wk =   0.0164609
        k(   16) = (   0.1111111   0.1111111   0.1111111), wk =   0.0109739
        k(   17) = (   0.1111111   0.1111111   0.2222222), wk =   0.0329218
        k(   18) = (   0.1111111   0.1111111   0.3333333), wk =   0.0329218
        k(   19) = (   0.1111111   0.1111111   0.4444444), wk =   0.0329218
        k(   20) = (   0.1111111   0.2222222   0.2222222), wk =   0.0329218
        k(   21) = (   0.1111111   0.2222222   0.3333333), wk =   0.0658436
        k(   22) = (   0.1111111   0.2222222   0.4444444), wk =   0.0658436
        k(   23) = (   0.1111111   0.3333333   0.3333333), wk =   0.0329218
        k(   24) = (   0.1111111   0.3333333   0.4444444), wk =   0.0658436
        k(   25) = (   0.1111111   0.4444444   0.4444444), wk =   0.0329218
        k(   26) = (   0.2222222   0.2222222   0.2222222), wk =   0.0109739
        k(   27) = (   0.2222222   0.2222222   0.3333333), wk =   0.0329218
        k(   28) = (   0.2222222   0.2222222   0.4444444), wk =   0.0329218
        k(   29) = (   0.2222222   0.3333333   0.3333333), wk =   0.0329218
        k(   30) = (   0.2222222   0.3333333   0.4444444), wk =   0.0658436
        k(   31) = (   0.2222222   0.4444444   0.4444444), wk =   0.0329218
        k(   32) = (   0.3333333   0.3333333   0.3333333), wk =   0.0109739
        k(   33) = (   0.3333333   0.3333333   0.4444444), wk =   0.0329218
        k(   34) = (   0.3333333   0.4444444   0.4444444), wk =   0.0329218
        k(   35) = (   0.4444444   0.4444444   0.4444444), wk =   0.0109739
        k(   36) = (   0.0000000   0.0000000   0.0000000), wk =   0.0013717
        k(   37) = (   0.0000000   0.0000000   0.1111111), wk =   0.0082305
        k(   38) = (   0.0000000   0.0000000   0.2222222), wk =   0.0082305
        k(   39) = (   0.0000000   0.0000000   0.3333333), wk =   0.0082305
        k(   40) = (   0.0000000   0.0000000   0.4444444), wk =   0.0082305
        k(   41) = (   0.0000000   0.1111111   0.1111111), wk =   0.0164609
        k(   42) = (   0.0000000   0.1111111   0.2222222), wk =   0.0329218
        k(   43) = (   0.0000000   0.1111111   0.3333333), wk =   0.0329218
        k(   44) = (   0.0000000   0.1111111   0.4444444), wk =   0.0329218
        k(   45) = (   0.0000000   0.2222222   0.2222222), wk =   0.0164609
        k(   46) = (   0.0000000   0.2222222   0.3333333), wk =   0.0329218
        k(   47) = (   0.0000000   0.2222222   0.4444444), wk =   0.0329218
        k(   48) = (   0.0000000   0.3333333   0.3333333), wk =   0.0164609
        k(   49) = (   0.0000000   0.3333333   0.4444444), wk =   0.0329218
        k(   50) = (   0.0000000   0.4444444   0.4444444), wk =   0.0164609
        k(   51) = (   0.1111111   0.1111111   0.1111111), wk =   0.0109739
        k(   52) = (   0.1111111   0.1111111   0.2222222), wk =   0.0329218
        k(   53) = (   0.1111111   0.1111111   0.3333333), wk =   0.0329218
        k(   54) = (   0.1111111   0.1111111   0.4444444), wk =   0.0329218
        k(   55) = (   0.1111111   0.2222222   0.2222222), wk =   0.0329218
        k(   56) = (   0.1111111   0.2222222   0.3333333), wk =   0.0658436
        k(   57) = (   0.1111111   0.2222222   0.4444444), wk =   0.0658436
        k(   58) = (   0.1111111   0.3333333   0.3333333), wk =   0.0329218
        k(   59) = (   0.1111111   0.3333333   0.4444444), wk =   0.0658436
        k(   60) = (   0.1111111   0.4444444   0.4444444), wk =   0.0329218
        k(   61) = (   0.2222222   0.2222222   0.2222222), wk =   0.0109739
        k(   62) = (   0.2222222   0.2222222   0.3333333), wk =   0.0329218
        k(   63) = (   0.2222222   0.2222222   0.4444444), wk =   0.0329218
        k(   64) = (   0.2222222   0.3333333   0.3333333), wk =   0.0329218
        k(   65) = (   0.2222222   0.3333333   0.4444444), wk =   0.0658436
        k(   66) = (   0.2222222   0.4444444   0.4444444), wk =   0.0329218
        k(   67) = (   0.3333333   0.3333333   0.3333333), wk =   0.0109739
        k(   68) = (   0.3333333   0.3333333   0.4444444), wk =   0.0329218
        k(   69) = (   0.3333333   0.4444444   0.4444444), wk =   0.0329218
        k(   70) = (   0.4444444   0.4444444   0.4444444), wk =   0.0109739

     Dense  grid:   234489 G-vectors     FFT dimensions: (  80,  80,  80)

     Smooth grid:   127675 G-vectors     FFT dimensions: (  64,  64,  64)

     Largest allocated arrays     est. size (Mb)     dimensions
        Kohn-Sham Wavefunctions         1.71 Mb     (    2669,   42)
        NL pseudopotentials             3.26 Mb     (    2669,   80)
        Each V/rho on FFT grid          2.73 Mb     (   89600,   2)
        Each G-vector array             0.30 Mb     (   39082)
        G-vector shells                 0.01 Mb     (    1216)
     Largest temporary arrays     est. size (Mb)     dimensions
        Auxiliary wavefunctions         6.84 Mb     (    2669,  168)
        Each subspace H/S matrix        0.43 Mb     (     168,  168)
        Each <psi_i|beta_j> matrix      0.05 Mb     (      80,   42)
        Arrays for rho mixing          10.94 Mb     (   89600,    8)

     Initial potential from superposition of free atoms

     starting charge   68.99837, renormalised to   69.00000
     Starting wfc are   44 randomized atomic wfcs
     Checking if some PAW data can be deallocated... 

     total cpu time spent up to now is        7.4 secs

     per-process dynamical memory:   186.2 Mb

     Self-consistent Calculation

     iteration #  1     ecut=   200.00 Ry     beta=0.70
     Davidson diagonalization with overlap
     ethr =  1.00E-02,  avg # of iterations =  3.1

     negative rho (up, down):  0.000E+00 3.332E-04
 
     Magnetic moment per site:
     atom:    1    charge:   12.7335    magn:    4.0979    constr:    0.0000
     atom:    2    charge:   12.7335    magn:    4.0979    constr:    0.0000
     atom:    3    charge:   12.7335    magn:    4.0979    constr:    0.0000
     atom:    4    charge:   12.6140    magn:    4.1673    constr:    0.0000
     atom:    5    charge:    4.6361    magn:    0.1190    constr:    0.0000

     total cpu time spent up to now is       24.7 secs

     total energy              =   -1344.14450662 Ry
     Harris-Foulkes estimate   =   -1343.44694012 Ry
     estimated scf accuracy    <       2.86656082 Ry

     total magnetization       =    13.87 Bohr mag/cell
     absolute magnetization    =    14.05 Bohr mag/cell

     iteration #  2     ecut=   200.00 Ry     beta=0.70
     Davidson diagonalization with overlap
     ethr =  4.15E-03,  avg # of iterations =  3.4

     negative rho (up, down):  0.000E+00 3.374E-04
 
     Magnetic moment per site:
     atom:    1    charge:   12.7244    magn:    3.8171    constr:    0.0000
     atom:    2    charge:   12.7244    magn:    3.8171    constr:    0.0000
     atom:    3    charge:   12.7244    magn:    3.8171    constr:    0.0000
     atom:    4    charge:   13.0651    magn:    3.5708    constr:    0.0000
     atom:    5    charge:    4.2264    magn:    0.0576    constr:    0.0000

     total cpu time spent up to now is       41.9 secs

     total energy              =   -1343.30165732 Ry
     Harris-Foulkes estimate   =   -1345.75066840 Ry
     estimated scf accuracy    <       8.51815041 Ry

     total magnetization       =     9.38 Bohr mag/cell
     absolute magnetization    =    10.50 Bohr mag/cell

     iteration #  3     ecut=   200.00 Ry     beta=0.70
     Davidson diagonalization with overlap
     ethr =  4.15E-03,  avg # of iterations =  3.5

     negative rho (up, down):  0.000E+00 1.614E-04
 
     Magnetic moment per site:
     atom:    1    charge:   12.8852    magn:    3.4482    constr:    0.0000
     atom:    2    charge:   12.8852    magn:    3.4482    constr:    0.0000
     atom:    3    charge:   12.8852    magn:    3.4482    constr:    0.0000
     atom:    4    charge:   12.8123    magn:    3.0186    constr:    0.0000
     atom:    5    charge:    4.0302    magn:    0.0245    constr:    0.0000

     total cpu time spent up to now is       59.4 secs

     total energy              =   -1343.62316391 Ry
     Harris-Foulkes estimate   =   -1346.18963423 Ry
     estimated scf accuracy    <      25.51619267 Ry

     total magnetization       =     3.80 Bohr mag/cell
     absolute magnetization    =     4.50 Bohr mag/cell

     iteration #  4     ecut=   200.00 Ry     beta=0.70
     Davidson diagonalization with overlap
     ethr =  4.15E-03,  avg # of iterations =  3.2

     negative rho (up, down):  0.000E+00 6.041E-04
 
     Magnetic moment per site:
     atom:    1    charge:   12.7745    magn:    2.2622    constr:    0.0000
     atom:    2    charge:   12.7745    magn:    2.2622    constr:    0.0000
     atom:    3    charge:   12.7745    magn:    2.2622    constr:    0.0000
     atom:    4    charge:   12.7286    magn:    1.8792    constr:    0.0000
     atom:    5    charge:    4.0534    magn:   -0.0484    constr:    0.0000

     total cpu time spent up to now is       77.4 secs

     total energy              =   -1345.03018023 Ry
     Harris-Foulkes estimate   =   -1345.10784866 Ry
     estimated scf accuracy    <       0.54840408 Ry

     total magnetization       =    10.75 Bohr mag/cell
     absolute magnetization    =    11.16 Bohr mag/cell

     iteration #  5     ecut=   200.00 Ry     beta=0.70
     Davidson diagonalization with overlap
     ethr =  7.95E-04,  avg # of iterations =  3.3

     negative rho (up, down):  0.000E+00 2.873E-04
 
     Magnetic moment per site:
     atom:    1    charge:   12.8334    magn:    2.1624    constr:    0.0000
     atom:    2    charge:   12.8334    magn:    2.1624    constr:    0.0000
     atom:    3    charge:   12.8334    magn:    2.1624    constr:    0.0000
     atom:    4    charge:   12.8043    magn:    2.0424    constr:    0.0000
     atom:    5    charge:    4.1101    magn:   -0.0266    constr:    0.0000

     total cpu time spent up to now is       97.7 secs

     total energy              =   -1345.11555569 Ry
     Harris-Foulkes estimate   =   -1345.20299012 Ry
     estimated scf accuracy    <       0.24153051 Ry

     total magnetization       =     9.59 Bohr mag/cell
     absolute magnetization    =     9.95 Bohr mag/cell

     iteration #  6     ecut=   200.00 Ry     beta=0.70
     Davidson diagonalization with overlap
     ethr =  3.50E-04,  avg # of iterations =  3.0

     negative rho (up, down):  0.000E+00 2.425E-04
 
     Magnetic moment per site:
     atom:    1    charge:   12.8272    magn:    2.1146    constr:    0.0000
     atom:    2    charge:   12.8272    magn:    2.1146    constr:    0.0000
     atom:    3    charge:   12.8272    magn:    2.1146    constr:    0.0000
     atom:    4    charge:   12.7932    magn:    2.3703    constr:    0.0000
     atom:    5    charge:    4.1121    magn:    0.0065    constr:    0.0000

     total cpu time spent up to now is      115.9 secs

     total energy              =   -1345.16238884 Ry
     Harris-Foulkes estimate   =   -1345.15816047 Ry
     estimated scf accuracy    <       0.02603186 Ry

     total magnetization       =     9.38 Bohr mag/cell
     absolute magnetization    =     9.72 Bohr mag/cell

     iteration #  7     ecut=   200.00 Ry     beta=0.70
     Davidson diagonalization with overlap
     ethr =  3.77E-05,  avg # of iterations =  1.7

     negative rho (up, down):  0.000E+00 3.556E-04
 
     Magnetic moment per site:
     atom:    1    charge:   12.8279    magn:    1.9571    constr:    0.0000
     atom:    2    charge:   12.8279    magn:    1.9571    constr:    0.0000
     atom:    3    charge:   12.8279    magn:    1.9571    constr:    0.0000
     atom:    4    charge:   12.7728    magn:    2.8105    constr:    0.0000
     atom:    5    charge:    4.1114    magn:    0.0391    constr:    0.0000

     total cpu time spent up to now is      130.7 secs

     total energy              =   -1345.16226932 Ry
     Harris-Foulkes estimate   =   -1345.16415542 Ry
     estimated scf accuracy    <       0.01802774 Ry

     total magnetization       =     9.38 Bohr mag/cell
     absolute magnetization    =     9.71 Bohr mag/cell

     iteration #  8     ecut=   200.00 Ry     beta=0.70
     Davidson diagonalization with overlap
     ethr =  2.61E-05,  avg # of iterations =  2.2

     negative rho (up, down):  0.000E+00 3.422E-04
 
     Magnetic moment per site:
     atom:    1    charge:   12.8310    magn:    1.8624    constr:    0.0000
     atom:    2    charge:   12.8310    magn:    1.8624    constr:    0.0000
     atom:    3    charge:   12.8310    magn:    1.8624    constr:    0.0000
     atom:    4    charge:   12.7753    magn:    2.7251    constr:    0.0000
     atom:    5    charge:    4.1092    magn:    0.0310    constr:    0.0000

     total cpu time spent up to now is      145.9 secs

     total energy              =   -1345.16729376 Ry
     Harris-Foulkes estimate   =   -1345.16631881 Ry
     estimated scf accuracy    <       0.00209023 Ry

     total magnetization       =     9.00 Bohr mag/cell
     absolute magnetization    =     9.35 Bohr mag/cell

     iteration #  9     ecut=   200.00 Ry     beta=0.70
     Davidson diagonalization with overlap
     ethr =  3.03E-06,  avg # of iterations =  2.1

     negative rho (up, down):  0.000E+00 3.749E-04
 
     Magnetic moment per site:
     atom:    1    charge:   12.8289    magn:    1.9948    constr:    0.0000
     atom:    2    charge:   12.8289    magn:    1.9948    constr:    0.0000
     atom:    3    charge:   12.8289    magn:    1.9948    constr:    0.0000
     atom:    4    charge:   12.7743    magn:    2.7578    constr:    0.0000
     atom:    5    charge:    4.1140    magn:    0.0387    constr:    0.0000

     total cpu time spent up to now is      160.4 secs

     total energy              =   -1345.16474724 Ry
     Harris-Foulkes estimate   =   -1345.16811574 Ry
     estimated scf accuracy    <       0.00202294 Ry

     total magnetization       =     8.59 Bohr mag/cell
     absolute magnetization    =     8.97 Bohr mag/cell

     iteration # 10     ecut=   200.00 Ry     beta=0.70
     Davidson diagonalization with overlap
     ethr =  2.93E-06,  avg # of iterations =  1.9

     negative rho (up, down):  0.000E+00 3.910E-04
 
     Magnetic moment per site:
     atom:    1    charge:   12.8275    magn:    2.0782    constr:    0.0000
     atom:    2    charge:   12.8275    magn:    2.0782    constr:    0.0000
     atom:    3    charge:   12.8275    magn:    2.0782    constr:    0.0000
     atom:    4    charge:   12.7753    magn:    2.7412    constr:    0.0000
     atom:    5    charge:    4.1175    magn:    0.0451    constr:    0.0000

     total cpu time spent up to now is      174.9 secs

     total energy              =   -1345.16455083 Ry
     Harris-Foulkes estimate   =   -1345.16618569 Ry
     estimated scf accuracy    <       0.00219792 Ry

     total magnetization       =     9.10 Bohr mag/cell
     absolute magnetization    =     9.44 Bohr mag/cell

     iteration # 11     ecut=   200.00 Ry     beta=0.70
     Davidson diagonalization with overlap
     ethr =  2.93E-06,  avg # of iterations =  1.7

     negative rho (up, down):  0.000E+00 2.828E-04
 
     Magnetic moment per site:
     atom:    1    charge:   12.8343    magn:    1.7211    constr:    0.0000
     atom:    2    charge:   12.8343    magn:    1.7211    constr:    0.0000
     atom:    3    charge:   12.8343    magn:    1.7211    constr:    0.0000
     atom:    4    charge:   12.7752    magn:    2.6959    constr:    0.0000
     atom:    5    charge:    4.1043    magn:    0.0138    constr:    0.0000

     total cpu time spent up to now is      189.1 secs

     total energy              =   -1345.16101992 Ry
     Harris-Foulkes estimate   =   -1345.16503571 Ry
     estimated scf accuracy    <       0.00283075 Ry

     total magnetization       =     9.33 Bohr mag/cell
     absolute magnetization    =     9.66 Bohr mag/cell

     iteration # 12     ecut=   200.00 Ry     beta=0.70
     Davidson diagonalization with overlap
     ethr =  2.93E-06,  avg # of iterations =  3.1

     negative rho (up, down):  0.000E+00 1.780E-04
 
     Magnetic moment per site:
     atom:    1    charge:   12.8414    magn:    1.3220    constr:    0.0000
     atom:    2    charge:   12.8414    magn:    1.3220    constr:    0.0000
     atom:    3    charge:   12.8414    magn:    1.3220    constr:    0.0000
     atom:    4    charge:   12.7745    magn:    2.6496    constr:    0.0000
     atom:    5    charge:    4.0884    magn:   -0.0224    constr:    0.0000

     total cpu time spent up to now is      207.6 secs

     total energy              =   -1345.16200237 Ry
     Harris-Foulkes estimate   =   -1345.17029259 Ry
     estimated scf accuracy    <       0.00119132 Ry

     total magnetization       =     8.19 Bohr mag/cell
     absolute magnetization    =     8.58 Bohr mag/cell

     iteration # 13     ecut=   200.00 Ry     beta=0.70
     Davidson diagonalization with overlap
     ethr =  1.73E-06,  avg # of iterations =  3.4

     negative rho (up, down):  0.000E+00 1.733E-04
 
     Magnetic moment per site:
     atom:    1    charge:   12.8437    magn:    1.2182    constr:    0.0000
     atom:    2    charge:   12.8437    magn:    1.2182    constr:    0.0000
     atom:    3    charge:   12.8437    magn:    1.2182    constr:    0.0000
     atom:    4    charge:   12.7744    magn:    2.6454    constr:    0.0000
     atom:    5    charge:    4.0840    magn:   -0.0327    constr:    0.0000

     total cpu time spent up to now is      229.1 secs

     total energy              =   -1345.16953023 Ry
     Harris-Foulkes estimate   =   -1345.17094916 Ry
     estimated scf accuracy    <       0.00056520 Ry

     total magnetization       =     7.24 Bohr mag/cell
     absolute magnetization    =     7.61 Bohr mag/cell

     iteration # 14     ecut=   200.00 Ry     beta=0.70
     Davidson diagonalization with overlap
     ethr =  8.19E-07,  avg # of iterations =  2.7

     negative rho (up, down):  0.000E+00 1.786E-04
 
     Magnetic moment per site:
     atom:    1    charge:   12.8425    magn:    1.2947    constr:    0.0000
     atom:    2    charge:   12.8425    magn:    1.2947    constr:    0.0000
     atom:    3    charge:   12.8425    magn:    1.2947    constr:    0.0000
     atom:    4    charge:   12.7745    magn:    2.6531    constr:    0.0000
     atom:    5    charge:    4.0860    magn:   -0.0272    constr:    0.0000

     total cpu time spent up to now is      245.6 secs

     total energy              =   -1345.17045983 Ry
     Harris-Foulkes estimate   =   -1345.17019629 Ry
     estimated scf accuracy    <       0.00125585 Ry

     total magnetization       =     6.99 Bohr mag/cell
     absolute magnetization    =     7.36 Bohr mag/cell

     iteration # 15     ecut=   200.00 Ry     beta=0.70
     Davidson diagonalization with overlap
     ethr =  8.19E-07,  avg # of iterations =  2.1

     negative rho (up, down):  0.000E+00 1.805E-04
 
     Magnetic moment per site:
     atom:    1    charge:   12.8429    magn:    1.2965    constr:    0.0000
     atom:    2    charge:   12.8429    magn:    1.2965    constr:    0.0000
     atom:    3    charge:   12.8429    magn:    1.2965    constr:    0.0000
     atom:    4    charge:   12.7750    magn:    2.6620    constr:    0.0000
     atom:    5    charge:    4.0852    magn:   -0.0315    constr:    0.0000

     total cpu time spent up to now is      260.5 secs

     total energy              =   -1345.17092724 Ry
     Harris-Foulkes estimate   =   -1345.17083328 Ry
     estimated scf accuracy    <       0.00073414 Ry

     total magnetization       =     7.18 Bohr mag/cell
     absolute magnetization    =     7.55 Bohr mag/cell

     iteration # 16     ecut=   200.00 Ry     beta=0.70
     Davidson diagonalization with overlap
     ethr =  8.19E-07,  avg # of iterations =  1.0

     negative rho (up, down):  0.000E+00 2.173E-04
 
     Magnetic moment per site:
     atom:    1    charge:   12.8389    magn:    1.4952    constr:    0.0000
     atom:    2    charge:   12.8389    magn:    1.4952    constr:    0.0000
     atom:    3    charge:   12.8389    magn:    1.4952    constr:    0.0000
     atom:    4    charge:   12.7744    magn:    2.6866    constr:    0.0000
     atom:    5    charge:    4.0908    magn:   -0.0191    constr:    0.0000

     total cpu time spent up to now is      274.3 secs

     total energy              =   -1345.16878305 Ry
     Harris-Foulkes estimate   =   -1345.17094206 Ry
     estimated scf accuracy    <       0.00071346 Ry

     total magnetization       =     7.19 Bohr mag/cell
     absolute magnetization    =     7.56 Bohr mag/cell

     iteration # 17     ecut=   200.00 Ry     beta=0.70
     Davidson diagonalization with overlap
     ethr =  8.19E-07,  avg # of iterations =  3.1

     negative rho (up, down):  0.000E+00 2.175E-04
 
     Magnetic moment per site:
     atom:    1    charge:   12.8388    magn:    1.4987    constr:    0.0000
     atom:    2    charge:   12.8388    magn:    1.4987    constr:    0.0000
     atom:    3    charge:   12.8388    magn:    1.4987    constr:    0.0000
     atom:    4    charge:   12.7744    magn:    2.6849    constr:    0.0000
     atom:    5    charge:    4.0911    magn:   -0.0181    constr:    0.0000

     total cpu time spent up to now is      293.8 secs

     total energy              =   -1345.17135637 Ry
     Harris-Foulkes estimate   =   -1345.17135939 Ry
     estimated scf accuracy    <       0.00076403 Ry

     total magnetization       =     7.73 Bohr mag/cell
     absolute magnetization    =     8.07 Bohr mag/cell

     iteration # 18     ecut=   200.00 Ry     beta=0.70
     Davidson diagonalization with overlap
     ethr =  8.19E-07,  avg # of iterations =  1.0

     negative rho (up, down):  0.000E+00 2.231E-04
 
     Magnetic moment per site:
     atom:    1    charge:   12.8366    magn:    1.5528    constr:    0.0000
     atom:    2    charge:   12.8366    magn:    1.5528    constr:    0.0000
     atom:    3    charge:   12.8366    magn:    1.5528    constr:    0.0000
     atom:    4    charge:   12.7741    magn:    2.6694    constr:    0.0000
     atom:    5    charge:    4.0959    magn:   -0.0045    constr:    0.0000

     total cpu time spent up to now is      307.6 secs

     total energy              =   -1345.17107556 Ry
     Harris-Foulkes estimate   =   -1345.17135790 Ry
     estimated scf accuracy    <       0.00068566 Ry

     total magnetization       =     7.74 Bohr mag/cell
     absolute magnetization    =     8.08 Bohr mag/cell

     iteration # 19     ecut=   200.00 Ry     beta=0.70
     Davidson diagonalization with overlap
     ethr =  8.19E-07,  avg # of iterations =  2.0

     negative rho (up, down):  0.000E+00 2.218E-04
 
     Magnetic moment per site:
     atom:    1    charge:   12.8362    magn:    1.5589    constr:    0.0000
     atom:    2    charge:   12.8362    magn:    1.5589    constr:    0.0000
     atom:    3    charge:   12.8362    magn:    1.5589    constr:    0.0000
     atom:    4    charge:   12.7740    magn:    2.6649    constr:    0.0000
     atom:    5    charge:    4.0966    magn:   -0.0021    constr:    0.0000

     total cpu time spent up to now is      322.6 secs

     total energy              =   -1345.17129191 Ry
     Harris-Foulkes estimate   =   -1345.17129611 Ry
     estimated scf accuracy    <       0.00012891 Ry

     total magnetization       =     7.85 Bohr mag/cell
     absolute magnetization    =     8.20 Bohr mag/cell

     iteration # 20     ecut=   200.00 Ry     beta=0.70
     Davidson diagonalization with overlap
     ethr =  1.87E-07,  avg # of iterations =  1.1

     negative rho (up, down):  0.000E+00 1.945E-04
 
     Magnetic moment per site:
     atom:    1    charge:   12.8372    magn:    1.4762    constr:    0.0000
     atom:    2    charge:   12.8372    magn:    1.4762    constr:    0.0000
     atom:    3    charge:   12.8372    magn:    1.4762    constr:    0.0000
     atom:    4    charge:   12.7736    magn:    2.6528    constr:    0.0000
     atom:    5    charge:    4.0946    magn:   -0.0048    constr:    0.0000

     total cpu time spent up to now is      336.4 secs

     total energy              =   -1345.17100426 Ry
     Harris-Foulkes estimate   =   -1345.17129721 Ry
     estimated scf accuracy    <       0.00011913 Ry

     total magnetization       =     7.86 Bohr mag/cell
     absolute magnetization    =     8.21 Bohr mag/cell

     iteration # 21     ecut=   200.00 Ry     beta=0.70
     Davidson diagonalization with overlap
     ethr =  1.73E-07,  avg # of iterations =  3.1

     negative rho (up, down):  0.000E+00 1.953E-04
 
     Magnetic moment per site:
     atom:    1    charge:   12.8374    magn:    1.4787    constr:    0.0000
     atom:    2    charge:   12.8374    magn:    1.4787    constr:    0.0000
     atom:    3    charge:   12.8374    magn:    1.4787    constr:    0.0000
     atom:    4    charge:   12.7738    magn:    2.6549    constr:    0.0000
     atom:    5    charge:    4.0945    magn:   -0.0052    constr:    0.0000

     total cpu time spent up to now is      355.5 secs

     total energy              =   -1345.17142672 Ry
     Harris-Foulkes estimate   =   -1345.17142645 Ry
     estimated scf accuracy    <       0.00001063 Ry

     total magnetization       =     7.65 Bohr mag/cell
     absolute magnetization    =     8.00 Bohr mag/cell

     iteration # 22     ecut=   200.00 Ry     beta=0.70
     Davidson diagonalization with overlap
     ethr =  1.54E-08,  avg # of iterations =  1.2

     negative rho (up, down):  0.000E+00 1.969E-04
 
     Magnetic moment per site:
     atom:    1    charge:   12.8374    magn:    1.4865    constr:    0.0000
     atom:    2    charge:   12.8374    magn:    1.4865    constr:    0.0000
     atom:    3    charge:   12.8374    magn:    1.4865    constr:    0.0000
     atom:    4    charge:   12.7739    magn:    2.6526    constr:    0.0000
     atom:    5    charge:    4.0951    magn:   -0.0030    constr:    0.0000

     total cpu time spent up to now is      369.4 secs

     total energy              =   -1345.17142151 Ry
     Harris-Foulkes estimate   =   -1345.17142758 Ry
     estimated scf accuracy    <       0.00001174 Ry

     total magnetization       =     7.66 Bohr mag/cell
     absolute magnetization    =     8.01 Bohr mag/cell

     iteration # 23     ecut=   200.00 Ry     beta=0.70
     Davidson diagonalization with overlap
     ethr =  1.54E-08,  avg # of iterations =  2.3

     negative rho (up, down):  0.000E+00 1.973E-04
 
     Magnetic moment per site:
     atom:    1    charge:   12.8375    magn:    1.4858    constr:    0.0000
     atom:    2    charge:   12.8375    magn:    1.4858    constr:    0.0000
     atom:    3    charge:   12.8375    magn:    1.4858    constr:    0.0000
     atom:    4    charge:   12.7739    magn:    2.6545    constr:    0.0000
     atom:    5    charge:    4.0948    magn:   -0.0041    constr:    0.0000

     total cpu time spent up to now is      384.8 secs

     total energy              =   -1345.17142721 Ry
     Harris-Foulkes estimate   =   -1345.17142783 Ry
     estimated scf accuracy    <       0.00000625 Ry

     total magnetization       =     7.68 Bohr mag/cell
     absolute magnetization    =     8.03 Bohr mag/cell

     iteration # 24     ecut=   200.00 Ry     beta=0.70
     Davidson diagonalization with overlap
     ethr =  9.05E-09,  avg # of iterations =  1.1

     negative rho (up, down):  0.000E+00 1.974E-04
 
     Magnetic moment per site:
     atom:    1    charge:   12.8375    magn:    1.4866    constr:    0.0000
     atom:    2    charge:   12.8375    magn:    1.4866    constr:    0.0000
     atom:    3    charge:   12.8375    magn:    1.4866    constr:    0.0000
     atom:    4    charge:   12.7739    magn:    2.6543    constr:    0.0000
     atom:    5    charge:    4.0948    magn:   -0.0039    constr:    0.0000

     total cpu time spent up to now is      398.6 secs

     total energy              =   -1345.17142811 Ry
     Harris-Foulkes estimate   =   -1345.17142812 Ry
     estimated scf accuracy    <       0.00000054 Ry

     total magnetization       =     7.68 Bohr mag/cell
     absolute magnetization    =     8.03 Bohr mag/cell

     iteration # 25     ecut=   200.00 Ry     beta=0.70
     Davidson diagonalization with overlap
     ethr =  7.87E-10,  avg # of iterations =  2.3

     negative rho (up, down):  0.000E+00 1.973E-04
 
     Magnetic moment per site:
     atom:    1    charge:   12.8375    magn:    1.4873    constr:    0.0000
     atom:    2    charge:   12.8375    magn:    1.4873    constr:    0.0000
     atom:    3    charge:   12.8375    magn:    1.4873    constr:    0.0000
     atom:    4    charge:   12.7739    magn:    2.6539    constr:    0.0000
     atom:    5    charge:    4.0948    magn:   -0.0038    constr:    0.0000

     total cpu time spent up to now is      413.9 secs

     total energy              =   -1345.17142825 Ry
     Harris-Foulkes estimate   =   -1345.17142824 Ry
     estimated scf accuracy    <       0.00000005 Ry

     total magnetization       =     7.68 Bohr mag/cell
     absolute magnetization    =     8.03 Bohr mag/cell

     iteration # 26     ecut=   200.00 Ry     beta=0.70
     Davidson diagonalization with overlap
     ethr =  6.55E-11,  avg # of iterations =  2.8

     negative rho (up, down):  0.000E+00 1.974E-04
 
     Magnetic moment per site:
     atom:    1    charge:   12.8375    magn:    1.4877    constr:    0.0000
     atom:    2    charge:   12.8375    magn:    1.4877    constr:    0.0000
     atom:    3    charge:   12.8375    magn:    1.4877    constr:    0.0000
     atom:    4    charge:   12.7739    magn:    2.6538    constr:    0.0000
     atom:    5    charge:    4.0949    magn:   -0.0037    constr:    0.0000

     total cpu time spent up to now is      431.8 secs

     total energy              =   -1345.17142829 Ry
     Harris-Foulkes estimate   =   -1345.17142829 Ry
     estimated scf accuracy    <       0.00000001 Ry

     total magnetization       =     7.68 Bohr mag/cell
     absolute magnetization    =     8.03 Bohr mag/cell

     iteration # 27     ecut=   200.00 Ry     beta=0.70
     Davidson diagonalization with overlap
     ethr =  1.58E-11,  avg # of iterations =  2.7

     negative rho (up, down):  0.000E+00 1.974E-04
 
     Magnetic moment per site:
     atom:    1    charge:   12.8375    magn:    1.4877    constr:    0.0000
     atom:    2    charge:   12.8375    magn:    1.4877    constr:    0.0000
     atom:    3    charge:   12.8375    magn:    1.4877    constr:    0.0000
     atom:    4    charge:   12.7739    magn:    2.6538    constr:    0.0000
     atom:    5    charge:    4.0949    magn:   -0.0036    constr:    0.0000

     total cpu time spent up to now is      448.7 secs

     End of self-consistent calculation

 ------ SPIN UP ------------


          k = 0.0000 0.0000 0.0000 ( 15967 PWs)   bands (ev):

   -69.9378 -69.2604 -69.2060 -69.2060 -35.9987 -35.9987 -35.9987 -35.6166
   -35.6166 -35.6166 -35.1594 -35.1594 -35.1594 -35.1527 -35.1527 -35.1527
     0.3455  11.4280  13.3303  13.3303  13.3303  13.8394  13.8394  14.1048
    14.1048  14.1048  16.0920  16.0920  16.0920  17.1981  17.1981  17.8459
    17.8459  18.3979  18.3979  18.3979  18.4657  18.4657  18.4657  18.4671
    21.8872  23.7552

          k = 0.0000 0.0000 0.1111 ( 15975 PWs)   bands (ev):

   -69.9377 -69.2590 -69.2075 -69.2060 -35.9977 -35.9977 -35.9973 -35.6154
   -35.6154 -35.6143 -35.1604 -35.1604 -35.1597 -35.1576 -35.1540 -35.1540
     0.4152  11.4853  12.9271  13.1103  13.1103  13.9187  13.9303  14.1571
    14.3439  14.3439  16.0274  16.1460  16.1460  17.2212  17.2570  17.8144
    17.8699  18.3137  18.3137  18.3978  18.3978  18.3981  18.4060  18.4645
    21.9632  23.2362

          k = 0.0000 0.0000 0.2222 ( 15983 PWs)   bands (ev):

   -69.9374 -69.2551 -69.2117 -69.2060 -35.9952 -35.9952 -35.9939 -35.6124
   -35.6124 -35.6084 -35.1702 -35.1632 -35.1632 -35.1604 -35.1568 -35.1568
     0.6002  11.3377  12.5042  12.7672  12.7672  14.0809  14.1352  14.3087
    14.7507  14.7507  15.8446  16.2720  16.2720  17.1941  17.2855  17.7242
    17.7685  17.9540  17.9540  18.2390  18.3984  18.4012  18.4012  18.4618
    22.1772  22.5168

          k = 0.0000 0.0000 0.3333 ( 16019 PWs)   bands (ev):

   -69.9371 -69.2494 -69.2176 -69.2060 -35.9923 -35.9923 -35.9900 -35.6089
   -35.6089 -35.6009 -35.1851 -35.1669 -35.1669 -35.1612 -35.1596 -35.1596
     0.8281  10.6696  12.4972  12.4972  12.8458  14.1974  14.4172  14.5420
    15.1425  15.1425  15.5759  16.3645  16.3645  16.9835  17.3211  17.3613
    17.5813  17.5813  17.6123  18.0168  18.3989  18.4143  18.4143  18.4590
    22.0439  22.5714

          k = 0.0000 0.0000 0.4444 ( 15984 PWs)   bands (ev):

   -69.9369 -69.2440 -69.2231 -69.2059 -35.9905 -35.9905 -35.9875 -35.6065
   -35.6065 -35.5956 -35.1953 -35.1696 -35.1696 -35.1618 -35.1613 -35.1613
     0.9889  10.1828  12.3530  12.3530  13.4005  14.1245  14.6315  14.8076
    15.2871  15.4346  15.4346  16.3333  16.3333  16.7319  16.9435  17.3458
    17.3741  17.3741  17.6397  17.8042  18.3991  18.4295  18.4295  18.4573
    21.9106  22.7892

          k = 0.0000 0.1111 0.1111 ( 15940 PWs)   bands (ev):

   -69.9376 -69.2576 -69.2082 -69.2068 -35.9981 -35.9968 -35.9951 -35.6265
   -35.6142 -35.6000 -35.1707 -35.1614 -35.1609 -35.1577 -35.1552 -35.1489
     0.4850  11.5392  12.6985  12.8567  12.9537  13.9959  14.0037  14.2122
    14.4868  14.5133  16.0038  16.1626  16.1924  17.2485  17.2725  17.7258
    17.7830  18.2259  18.2638  18.3177  18.3240  18.4100  18.4787  18.5422
    22.0239  23.4380

          k = 0.0000 0.1111 0.2222 ( 15988 PWs)   bands (ev):

   -69.9373 -69.2538 -69.2119 -69.2070 -35.9965 -35.9943 -35.9918 -35.6340
   -35.6110 -35.5841 -35.1861 -35.1659 -35.1641 -35.1588 -35.1583 -35.1445
     0.6703  11.3589  12.2604  12.6629  12.6764  14.1570  14.2065  14.3622
    14.8142  14.8587  15.8415  16.2812  16.2887  17.1595  17.3232  17.4379
    17.5841  17.9113  18.1397  18.1980  18.2416  18.3836  18.5580  18.6820
    22.2025  22.6700

          k = 0.0000 0.1111 0.3333 ( 16011 PWs)   bands (ev):

   -69.9370 -69.2482 -69.2177 -69.2071 -35.9937 -35.9916 -35.9892 -35.6378
   -35.6073 -35.5701 -35.2013 -35.1709 -35.1677 -35.1613 -35.1608 -35.1423
     0.8986  10.6613  12.1383  12.4160  12.9457  14.2825  14.4858  14.5911
    15.1749  15.2144  15.5802  16.2915  16.3933  16.9292  17.0974  17.2656
    17.4901  17.5574  17.8562  18.0732  18.1793  18.3773  18.6297  18.6756
    22.2615  22.4502

          k = 0.0000 0.1111 0.4444 ( 16001 PWs)   bands (ev):

   -69.9369 -69.2429 -69.2232 -69.2070 -35.9912 -35.9897 -35.9882 -35.6391
   -35.6049 -35.5617 -35.2110 -35.1741 -35.1703 -35.1630 -35.1622 -35.1414
     1.0599  10.1713  12.0376  12.2805  13.4692  14.2191  14.7009  14.8574
    15.2905  15.4586  15.4813  16.1375  16.3911  16.6628  16.8637  17.2553
    17.3553  17.4654  17.7077  17.8993  18.1432  18.3752  18.6537  18.6756
    22.1428  22.6121

          k = 0.0000 0.2222 0.2222 ( 15988 PWs)   bands (ev):

   -69.9371 -69.2502 -69.2136 -69.2091 -35.9968 -35.9921 -35.9897 -35.6526
   -35.6075 -35.5586 -35.2074 -35.1685 -35.1664 -35.1618 -35.1606 -35.1310
     0.8565  11.2947  11.5674  12.4407  12.7894  14.3575  14.3835  14.5048
    15.0141  15.1101  15.7596  16.2748  16.3627  17.0223  17.0276  17.3103
    17.4584  17.7424  18.0341  18.0882  18.2577  18.3348  18.7083  18.9941
    22.1159  22.9984

          k = 0.0000 0.2222 0.3333 ( 15978 PWs)   bands (ev):

   -69.9369 -69.2449 -69.2182 -69.2100 -35.9954 -35.9896 -35.9890 -35.6650
   -35.6034 -35.5379 -35.2254 -35.1713 -35.1697 -35.1654 -35.1628 -35.1219
     1.0864  10.6284  11.3677  12.2331  13.1801  14.5162  14.6611  14.7161
    15.2786  15.3904  15.5579  16.0662  16.4958  16.7576  16.8083  17.1020
    17.4754  17.6356  17.8026  17.9576  18.1967  18.3519  18.8357  19.0290
    21.9455  22.8234

          k = 0.0000 0.2222 0.4444 ( 15992 PWs)   bands (ev):

   -69.9367 -69.2397 -69.2233 -69.2102 -35.9931 -35.9900 -35.9879 -35.6711
   -35.6006 -35.5261 -35.2359 -35.1732 -35.1722 -35.1673 -35.1644 -35.1175
     1.2492  10.1368  11.3031  12.1145  13.6797  14.4691  14.8908  14.9677
    15.2993  15.4956  15.5994  15.8225  16.5516  16.5534  16.6111  17.0966
    17.2978  17.5285  17.8747  17.8796  18.1776  18.2113  18.9123  18.9628
    21.9126  22.7455

          k = 0.0000 0.3333 0.3333 ( 15970 PWs)   bands (ev):

   -69.9367 -69.2399 -69.2198 -69.2134 -35.9958 -35.9903 -35.9873 -35.6845
   -35.5988 -35.5126 -35.2450 -35.1721 -35.1713 -35.1699 -35.1654 -35.1071
     1.3189  10.5582  10.5958  12.0537  13.5741  14.8383  14.8434  14.8881
    15.4138  15.4601  15.5949  15.7405  16.5549  16.6479  16.6577  16.8987
    17.3281  17.6090  17.7580  17.9052  18.0436  18.5478  19.0042  19.1743
    21.2660  23.3554

          k = 0.0000 0.3333 0.4444 ( 15985 PWs)   bands (ev):

   -69.9366 -69.2348 -69.2234 -69.2150 -35.9948 -35.9925 -35.9858 -35.6945
   -35.5957 -35.4985 -35.2559 -35.1744 -35.1723 -35.1713 -35.1671 -35.0994
     1.4839  10.0899  10.5350  11.9483  14.0223  14.7991  15.0849  15.1283
    15.2952  15.5098  15.5582  15.7463  16.4015  16.4738  16.7778  16.8317
    17.2032  17.3996  17.6207  17.9740  18.1738  18.5808  19.1028  19.1297
    20.9078  23.4487

          k = 0.0000 0.4444 0.4444 ( 15948 PWs)   bands (ev):

   -69.9364 -69.2293 -69.2239 -69.2201 -35.9954 -35.9945 -35.9844 -35.7068
   -35.5924 -35.4833 -35.2668 -35.1759 -35.1756 -35.1699 -35.1690 -35.0898
     1.6508  10.0557  10.0562  11.8496  14.3681  15.0247  15.1858  15.2539
    15.2589  15.4090  15.5745  15.8590  16.3137  16.3954  16.5770  16.9869
    17.1137  17.2345  17.4094  17.8576  18.3839  18.9441  19.1749  19.2129
    20.1303  23.9981

          k = 0.1111 0.1111 0.1111 ( 15957 PWs)   bands (ev):

   -69.9375 -69.2563 -69.2082 -69.2082 -35.9974 -35.9974 -35.9928 -35.6386
   -35.5989 -35.5989 -35.1737 -35.1700 -35.1700 -35.1510 -35.1491 -35.1491
     0.5548  11.5893  12.5636  12.5636  12.8354  14.0717  14.0717  14.3895
    14.3895  14.7340  15.9884  16.2021  16.2021  17.2666  17.2666  17.6641
    17.6641  17.9911  18.1230  18.3441  18.3441  18.4195  18.6407  18.6407
    22.0740  23.5625

          k = 0.1111 0.1111 0.2222 ( 15993 PWs)   bands (ev):

   -69.9372 -69.2526 -69.2121 -69.2081 -35.9963 -35.9956 -35.9896 -35.6508
   -35.5960 -35.5785 -35.1903 -35.1804 -35.1717 -35.1512 -35.1462 -35.1440
     0.7405  11.3709  12.1431  12.2978  12.7587  14.2324  14.2775  14.4624
    14.7620  15.0131  15.8441  16.2846  16.2952  17.1760  17.2939  17.3838
    17.4078  17.7634  17.9267  18.2174  18.3451  18.3560  18.8018  18.8326
    22.2206  22.8347

          k = 0.1111 0.1111 0.3333 ( 15999 PWs)   bands (ev):

   -69.9370 -69.2471 -69.2178 -69.2081 -35.9936 -35.9935 -35.9876 -35.6583
   -35.5926 -35.5611 -35.2066 -35.1890 -35.1728 -35.1530 -35.1469 -35.1399
     0.9694  10.6461  12.0639  12.0767  13.0382  14.3637  14.5547  14.6647
    15.1709  15.2802  15.5907  16.2779  16.3443  16.9168  17.0706  17.1115
    17.4308  17.6062  17.7039  18.0895  18.2499  18.3339  18.6809  18.9922
    22.4187  22.4433

          k = 0.1111 0.1111 0.4444 ( 15998 PWs)   bands (ev):

   -69.9368 -69.2419 -69.2232 -69.2081 -35.9922 -35.9903 -35.9879 -35.6617
   -35.5904 -35.5509 -35.2166 -35.1940 -35.1734 -35.1541 -35.1484 -35.1379
     1.1312  10.1542  11.9340  12.0076  13.5363  14.3072  14.7709  14.9229
    15.3009  15.4548  15.5303  16.0757  16.2781  16.6259  16.9673  17.0969
    17.3339  17.4990  17.7090  17.9300  18.1841  18.3237  18.5237  19.0837
    22.3367  22.5621

          k = 0.1111 0.2222 0.2222 ( 15999 PWs)   bands (ev):

   -69.9370 -69.2490 -69.2136 -69.2103 -35.9968 -35.9947 -35.9872 -35.6710
   -35.5868 -35.5577 -35.2084 -35.1854 -35.1820 -35.1468 -35.1459 -35.1312
     0.9273  11.2970  11.4890  12.0698  12.8955  14.4280  14.4564  14.6310
    14.9389  15.2086  15.7701  16.2696  16.3400  17.0316  17.0915  17.2141
    17.3956  17.5441  17.7219  18.2479  18.2496  18.3214  19.0775  19.1103
    22.1894  23.1063

          k = 0.1111 0.2222 0.3333 ( 15979 PWs)   bands (ev):

   -69.9368 -69.2439 -69.2182 -69.2110 -35.9957 -35.9932 -35.9866 -35.6852
   -35.5823 -35.5363 -35.2257 -35.1941 -35.1841 -35.1478 -35.1446 -35.1220
     1.1580  10.5980  11.3112  11.9146  13.2656  14.5774  14.7280  14.8334
    15.2636  15.3763  15.5836  16.1022  16.3719  16.7650  16.9124  17.0313
    17.4418  17.4780  17.6143  18.1518  18.1974  18.2543  18.9965  19.3336
    22.0568  22.8860

          k = 0.1111 0.2222 0.4444 ( 15979 PWs)   bands (ev):

   -69.9367 -69.2388 -69.2233 -69.2111 -35.9941 -35.9919 -35.9874 -35.6924
   -35.5798 -35.5239 -35.2358 -35.1997 -35.1845 -35.1485 -35.1446 -35.1174
     1.3215  10.1072  11.2411  11.8216  13.7357  14.5291  14.9595  15.0709
    15.3032  15.4784  15.6036  15.8648  16.2988  16.5433  16.8768  16.9673
    17.3022  17.4479  17.7961  18.0500  18.1007  18.2331  18.7427  19.4751
    22.0151  22.8355

          k = 0.1111 0.3333 0.3333 ( 15996 PWs)   bands (ev):

   -69.9366 -69.2391 -69.2198 -69.2142 -35.9965 -35.9932 -35.9866 -35.7054
   -35.5769 -35.5121 -35.2440 -35.1956 -35.1928 -35.1459 -35.1445 -35.1072
     1.3917  10.5241  10.5391  11.7567  13.6359  14.8223  14.9038  15.0685
    15.3296  15.4719  15.5694  15.9048  16.3664  16.6359  16.7525  16.9583
    17.3277  17.3350  17.7952  18.0111  18.1086  18.3393  19.2233  19.4678
    21.3616  23.2562

          k = 0.1111 0.3333 0.4444 ( 15986 PWs)   bands (ev):

   -69.9365 -69.2342 -69.2234 -69.2156 -35.9959 -35.9941 -35.9870 -35.7160
   -35.5739 -35.4981 -35.2542 -35.1999 -35.1940 -35.1457 -35.1445 -35.0995
     1.5578  10.0487  10.4832  11.6622  14.0409  14.7948  15.0909  15.2862
    15.2942  15.5093  15.5622  15.9172  16.2894  16.4460  16.7280  16.9207
    17.2026  17.3106  17.8564  17.9763  18.0302  18.4887  19.0168  19.6592
    20.9538  23.3824

          k = 0.1111 0.4444 0.4444 ( 15977 PWs)   bands (ev):

   -69.9364 -69.2290 -69.2239 -69.2204 -35.9966 -35.9959 -35.9868 -35.7286
   -35.5707 -35.4833 -35.2644 -35.1998 -35.1993 -35.1447 -35.1445 -35.0898
     1.7260  10.0073  10.0092  11.5674  14.3230  14.9816  15.0452  15.2045
    15.5459  15.5518  15.6298  16.0534  16.2556  16.3615  16.5045  16.9235
    17.1739  17.2214  17.6743  17.9342  18.0854  18.8777  19.1701  19.7000
    20.1195  23.7362

          k = 0.2222 0.2222 0.2222 ( 15987 PWs)   bands (ev):

   -69.9369 -69.2458 -69.2136 -69.2136 -35.9967 -35.9967 -35.9855 -35.6967
   -35.5554 -35.5554 -35.2160 -35.1986 -35.1986 -35.1337 -35.1337 -35.1296
     1.1157  11.2708  11.3111  11.3111  13.1132  14.6222  14.6222  14.9418
    14.9418  15.3039  15.7316  16.2792  16.2792  16.9690  16.9690  17.2821
    17.2821  17.2921  17.4268  18.2283  18.2283  18.3814  19.4145  19.4145
    22.2834  23.0621

          k = 0.2222 0.2222 0.3333 ( 15986 PWs)   bands (ev):

   -69.9367 -69.2411 -69.2185 -69.2136 -35.9966 -35.9966 -35.9862 -35.7158
   -35.5527 -35.5293 -35.2300 -35.2116 -35.2013 -35.1337 -35.1259 -35.1201
     1.3491  10.5167  11.1352  11.2354  13.4787  14.7336  14.8918  15.1005
    15.2916  15.2954  15.6688  16.1477  16.2338  16.7241  16.7859  17.1814
    17.1843  17.3772  17.5204  18.1614  18.2195  18.3160  19.2416  19.7639
    22.2486  22.6935

          k = 0.2222 0.2222 0.4444 ( 15978 PWs)   bands (ev):

   -69.9366 -69.2363 -69.2233 -69.2135 -35.9966 -35.9949 -35.9883 -35.7258
   -35.5509 -35.5147 -35.2390 -35.2186 -35.2016 -35.1343 -35.1226 -35.1147
     1.5148  10.0323  11.0316  11.1935  13.8846  14.6645  15.1472  15.1479
    15.4029  15.4924  15.6115  15.9864  16.1834  16.4974  16.7711  17.0061
    17.1466  17.5598  17.7230  18.0964  18.1962  18.2420  18.8106  20.0142
    22.2601  22.3755

          k = 0.2222 0.3333 0.3333 ( 15953 PWs)   bands (ev):

   -69.9366 -69.2369 -69.2198 -69.2164 -35.9983 -35.9975 -35.9880 -35.7397
   -35.5401 -35.5109 -35.2419 -35.2168 -35.2134 -35.1249 -35.1234 -35.1073
     1.5865  10.4046  10.4370  11.0620  13.7832  14.8926  14.9971  15.1535
    15.4037  15.4570  15.8014  16.1022  16.2129  16.6136  16.6340  16.9614
    17.3037  17.3488  17.6459  18.1527  18.2321  18.2818  19.4023  19.9182
    21.6312  22.6891

          k = 0.2222 0.3333 0.4444 ( 15959 PWs)   bands (ev):

   -69.9365 -69.2325 -69.2234 -69.2172 -35.9987 -35.9976 -35.9905 -35.7524
   -35.5368 -35.4967 -35.2502 -35.2227 -35.2147 -35.1244 -35.1195 -35.0995
     1.7557   9.9477  10.3577  10.9826  14.0722  14.8047  15.0271  15.2236
    15.4899  15.7146  15.8750  16.1616  16.1874  16.4231  16.6199  16.8033
    17.2858  17.5120  17.7753  18.1060  18.1693  18.3879  19.0264  20.2480
    21.0538  22.6438

          k = 0.2222 0.4444 0.4444 ( 15970 PWs)   bands (ev):

   -69.9364 -69.2282 -69.2238 -69.2212 -35.9996 -35.9993 -35.9926 -35.7668
   -35.5324 -35.4831 -35.2585 -35.2224 -35.2217 -35.1196 -35.1193 -35.0898
     1.9279   9.8897   9.8970  10.8923  14.2093  14.8977  14.9496  15.0889
    15.6722  16.0013  16.1135  16.2018  16.2631  16.3986  16.5119  16.6590
    17.4066  17.4414  17.8212  17.9826  18.1010  18.7643  19.1467  19.9406
    20.4395  22.9020

          k = 0.3333 0.3333 0.3333 ( 15978 PWs)   bands (ev):

   -69.9365 -69.2336 -69.2198 -69.2198 -36.0004 -36.0004 -35.9916 -35.7674
   -35.5095 -35.5095 -35.2430 -35.2286 -35.2286 -35.1098 -35.1098 -35.1053
     1.8295  10.2646  10.2646  10.4018  13.9568  14.9418  14.9944  14.9944
    15.6692  15.6692  16.1351  16.2176  16.2176  16.5750  16.5750  16.7362
    17.4733  17.5583  17.5583  18.2037  18.2037  18.3419  19.7535  19.7535
    21.9450  21.9450

          k = 0.3333 0.3333 0.4444 ( 15960 PWs)   bands (ev):

   -69.9364 -69.2299 -69.2234 -69.2197 -36.0018 -36.0010 -35.9953 -35.7824
   -35.5086 -35.4926 -35.2480 -35.2367 -35.2300 -35.1087 -35.1020 -35.0981
     2.0036   9.8386  10.1794  10.3014  14.0866  14.8128  14.9322  15.0658
    15.7097  15.9685  16.2180  16.2967  16.3759  16.5444  16.5846  16.7064
    17.4817  17.6853  17.7210  18.2221  18.2875  18.3193  19.0861  20.2690
    21.0591  21.9460

          k = 0.3333 0.4444 0.4444 ( 15948 PWs)   bands (ev):

   -69.9364 -69.2269 -69.2238 -69.2224 -36.0031 -36.0030 -35.9993 -35.7988
   -35.5003 -35.4828 -35.2519 -35.2385 -35.2378 -35.1005 -35.1001 -35.0898
     2.1818   9.7650   9.7772  10.1655  14.0869  14.8235  14.8778  14.9431
    15.8647  16.0631  16.2507  16.2626  16.4461  16.8097  16.8156  16.9888
    17.6308  17.6603  17.7493  18.2075  18.2600  18.5485  19.0738  19.6182
    20.9366  21.9306

          k = 0.4444 0.4444 0.4444 ( 15948 PWs)   bands (ev):

   -69.9363 -69.2255 -69.2238 -69.2238 -36.0052 -36.0052 -36.0039 -35.8164
   -35.4827 -35.4827 -35.2484 -35.2462 -35.2462 -35.0902 -35.0902 -35.0894
     2.3652   9.6880   9.6880   9.7163  14.0120  14.7927  14.8332  14.8332
    16.0115  16.0115  16.2625  16.2625  16.3290  17.4463  17.4463  17.4746
    17.7439  17.7439  17.9038  18.3143  18.3143  18.3170  18.9394  18.9394
    21.2439  21.2439

 ------ SPIN DOWN ----------


          k = 0.0000 0.0000 0.0000 ( 15967 PWs)   bands (ev):

   -67.3635 -67.3027 -67.3027 -66.5340 -33.9866 -33.9866 -33.9866 -33.2306
   -33.2306 -33.2306 -33.1919 -33.1919 -33.1919 -32.6395 -32.6395 -32.6395
     0.4463  11.7276  13.3948  13.3948  13.3948  15.2107  15.2107  15.5336
    15.5336  15.5336  18.0411  18.0411  18.0411  18.7047  18.7047  20.2818
    20.2818  20.2818  20.4081  20.4081  20.5093  20.8706  20.8706  20.8706
    23.0635  23.9612

          k = 0.0000 0.0000 0.1111 ( 15975 PWs)   bands (ev):

   -67.3618 -67.3043 -67.3027 -66.5341 -33.9853 -33.9853 -33.9848 -33.2310
   -33.2296 -33.2296 -33.1930 -33.1930 -33.1923 -32.6424 -32.6407 -32.6407
     0.5153  11.7585  13.0943  13.2812  13.2812  15.2705  15.3099  15.5908
    15.6867  15.6867  17.9634  18.1035  18.1035  18.7112  18.8014  20.2361
    20.2361  20.2820  20.3477  20.3645  20.4465  20.6202  20.6202  20.8707
    23.1048  23.6077

          k = 0.0000 0.0000 0.2222 ( 15983 PWs)   bands (ev):

   -67.3570 -67.3088 -67.3027 -66.5343 -33.9822 -33.9822 -33.9804 -33.2320
   -33.2270 -33.2270 -33.1958 -33.1958 -33.1931 -32.6497 -32.6437 -32.6437
     0.6980  11.5209  12.8547  13.0420  13.0420  15.3356  15.5856  15.7545
    16.0360  16.0360  17.7480  18.2772  18.2772  18.7206  18.8139  19.9887
    19.9887  20.1243  20.1429  20.2202  20.2202  20.2825  20.3766  20.8708
    23.0981  23.2966

          k = 0.0000 0.0000 0.3333 ( 16019 PWs)   bands (ev):

   -67.3502 -67.3154 -67.3026 -66.5345 -33.9786 -33.9786 -33.9753 -33.2331
   -33.2242 -33.2242 -33.1990 -33.1990 -33.1941 -32.6581 -32.6472 -32.6472
     0.9224  10.8626  12.8210  12.8210  13.2717  15.2192  15.9595  15.9956
    16.4088  16.4088  17.4486  18.5181  18.5181  18.5893  18.7027  19.4684
    19.4684  19.7687  19.8263  20.0528  20.0528  20.2830  20.3215  20.8710
    22.9355  23.5439

          k = 0.0000 0.0000 0.4444 ( 15984 PWs)   bands (ev):

   -67.3436 -67.3218 -67.3026 -66.5347 -33.9763 -33.9763 -33.9720 -33.2338
   -33.2223 -33.2223 -33.2010 -33.2010 -33.1948 -32.6637 -32.6496 -32.6496
     1.0803  10.3965  12.6955  12.6955  13.9346  14.7947  16.2271  16.2615
    16.6609  16.6609  17.1793  18.4156  18.6442  18.7636  18.7636  19.0531
    19.0531  19.4979  19.6038  19.9435  19.9435  20.2834  20.2855  20.8712
    22.9016  23.7478

          k = 0.0000 0.1111 0.1111 ( 15940 PWs)   bands (ev):

   -67.3601 -67.3050 -67.3035 -66.5341 -33.9981 -33.9841 -33.9694 -33.2350
   -33.2286 -33.2277 -33.1976 -33.1941 -33.1867 -32.6461 -32.6419 -32.6403
     0.5842  11.7908  12.8621  13.1406  13.1802  15.3466  15.3811  15.6567
    15.8146  15.8155  17.9271  18.1262  18.1578  18.7523  18.7968  20.1519
    20.1887  20.2135  20.2574  20.3572  20.4304  20.5233  20.5311  20.7748
    23.1398  23.8584

          k = 0.0000 0.1111 0.2222 ( 15988 PWs)   bands (ev):

   -67.3555 -67.3091 -67.3038 -66.5343 -34.0074 -33.9810 -33.9532 -33.2421
   -33.2259 -33.2255 -33.2010 -33.1969 -33.1815 -32.6525 -32.6450 -32.6425
     0.7671  11.5462  12.5127  12.9611  13.0784  15.4217  15.6385  15.8236
    16.1193  16.1287  17.7348  18.2828  18.2971  18.6947  18.7300  19.8200
    19.9570  19.9615  20.0877  20.2026  20.3614  20.3780  20.4819  20.7402
    23.2072  23.4012

          k = 0.0000 0.1111 0.3333 ( 16011 PWs)   bands (ev):

   -67.3488 -67.3155 -67.3038 -66.5346 -34.0130 -33.9775 -33.9396 -33.2492
   -33.2231 -33.2230 -33.2032 -33.2001 -33.1782 -32.6585 -32.6485 -32.6462
     0.9919  10.8683  12.4341  12.7537  13.4031  15.3131  16.0057  16.0655
    16.4578  16.4684  17.4442  18.3444  18.4938  18.5276  18.6584  19.4837
    19.5001  19.7220  19.8938  19.9375  20.2481  20.3630  20.3844  20.7410
    23.1202  23.4632

          k = 0.0000 0.1111 0.4444 ( 16001 PWs)   bands (ev):

   -67.3424 -67.3217 -67.3038 -66.5347 -34.0156 -33.9752 -33.9319 -33.2535
   -33.2213 -33.2211 -33.2045 -33.2021 -33.1767 -32.6619 -32.6509 -32.6491
     1.1501  10.3979  12.3630  12.6343  14.0097  14.9058  16.3026  16.3042
    16.6882  16.7031  17.1801  18.1821  18.3307  18.7856  18.7916  19.0850
    19.3044  19.5823  19.6173  19.8230  20.1432  20.3060  20.3648  20.7425
    23.1031  23.5994

          k = 0.0000 0.2222 0.2222 ( 15988 PWs)   bands (ev):

   -67.3513 -67.3109 -67.3060 -66.5345 -34.0288 -33.9780 -33.9266 -33.2583
   -33.2256 -33.2231 -33.2047 -33.1998 -33.1670 -32.6564 -32.6482 -32.6424
     0.9506  11.4992  11.8224  12.7779  13.2516  15.6151  15.7741  15.9974
    16.3298  16.3637  17.6310  18.2674  18.3695  18.5062  18.5787  19.6837
    19.7681  19.8180  19.9191  20.0934  20.4437  20.4477  20.5155  20.6849
    23.1192  23.9533

          k = 0.0000 0.2222 0.3333 ( 15978 PWs)   bands (ev):

   -67.3450 -67.3159 -67.3070 -66.5347 -34.0438 -33.9746 -33.9056 -33.2719
   -33.2254 -33.2198 -33.2089 -33.2029 -33.1558 -32.6581 -32.6518 -32.6448
     1.1764  10.8719  11.6512  12.5969  13.6634  15.5697  16.0779  16.2382
    16.5924  16.6217  17.4052  17.9796  18.2659  18.5838  18.5887  19.5184
    19.5368  19.7118  19.7453  19.8915  20.4107  20.4111  20.4840  20.6813
    23.0116  23.7345

          k = 0.0000 0.2222 0.4444 ( 15992 PWs)   bands (ev):

   -67.3389 -67.3216 -67.3072 -66.5348 -34.0515 -33.9724 -33.8939 -33.2796
   -33.2243 -33.2178 -33.2128 -33.2049 -33.1499 -32.6575 -32.6543 -32.6481
     1.3356  10.3961  11.6142  12.4904  14.2182  15.2001  16.3418  16.4884
    16.7634  16.8471  17.1757  17.7080  18.1343  18.6117  18.8660  19.1779
    19.3754  19.6219  19.6727  19.8137  20.3954  20.4157  20.4755  20.5144
    23.0489  23.6573

          k = 0.0000 0.3333 0.3333 ( 15970 PWs)   bands (ev):

   -67.3394 -67.3175 -67.3107 -66.5348 -34.0661 -33.9713 -33.8793 -33.2898
   -33.2278 -33.2163 -33.2161 -33.2062 -33.1382 -32.6558 -32.6556 -32.6451
     1.4039  10.8320  10.8970  12.4376  14.0754  15.8683  16.0259  16.4608
    16.7897  16.7991  17.2931  17.6316  18.0636  18.5079  18.7329  19.3589
    19.5305  19.5348  19.7314  19.9249  20.1459  20.5074  20.5138  20.8576
    22.5356  24.3134

          k = 0.0000 0.3333 0.4444 ( 15985 PWs)   bands (ev):

   -67.3337 -67.3215 -67.3124 -66.5349 -34.0779 -33.9691 -33.8650 -33.2995
   -33.2281 -33.2222 -33.2140 -33.2082 -33.1286 -32.6582 -32.6524 -32.6471
     1.5647  10.3853  10.8477  12.3420  14.5567  15.6033  16.2203  16.6897
    16.8595  17.0665  17.1526  17.3660  17.9799  18.4025  18.9745  19.2076
    19.2666  19.5029  19.5850  20.0348  20.0961  20.5258  20.5914  20.7764
    22.3310  24.3168

          k = 0.0000 0.4444 0.4444 ( 15948 PWs)   bands (ev):

   -67.3277 -67.3219 -67.3179 -66.5350 -34.0919 -33.9670 -33.8493 -33.3102
   -33.2303 -33.2286 -33.2116 -33.2103 -33.1170 -32.6607 -32.6487 -32.6470
     1.7270  10.3718  10.3757  12.2523  14.9224  15.9622  15.9823  16.8460
    16.9117  16.9141  17.1166  17.5507  17.9120  18.1333  19.0469  19.0621
    19.3045  19.4723  19.5335  19.7152  20.2627  20.5385  20.7786  20.8777
    21.8697  24.8267

          k = 0.1111 0.1111 0.1111 ( 15957 PWs)   bands (ev):

   -67.3586 -67.3050 -67.3050 -66.5342 -34.0114 -33.9683 -33.9683 -33.2360
   -33.2307 -33.2307 -33.1956 -33.1956 -33.1828 -32.6499 -32.6412 -32.6412
     0.6532  11.8237  12.7772  12.7772  13.1935  15.4347  15.4347  15.7979
    15.7979  15.9799  17.8993  18.1708  18.1708  18.7706  18.7706  20.0059
    20.1165  20.1422  20.1422  20.4006  20.4006  20.4021  20.6832  20.6832
    23.1811  24.0626

          k = 0.1111 0.1111 0.2222 ( 15993 PWs)   bands (ev):

   -67.3541 -67.3093 -67.3050 -66.5344 -34.0257 -33.9655 -33.9475 -33.2434
   -33.2380 -33.2287 -33.1955 -33.1927 -33.1771 -32.6556 -32.6435 -32.6430
     0.8364  11.5662  12.4036  12.5862  13.2015  15.5071  15.6956  15.9214
    16.1319  16.2324  17.7285  18.2746  18.2895  18.6802  18.6804  19.6474
    19.7884  19.9248  19.9927  20.2989  20.4493  20.4714  20.5381  20.7273
    23.2585  23.5523

          k = 0.1111 0.1111 0.3333 ( 15999 PWs)   bands (ev):

   -67.3476 -67.3155 -67.3049 -66.5346 -34.0354 -33.9622 -33.9303 -33.2516
   -33.2456 -33.2240 -33.1937 -33.1924 -33.1728 -32.6596 -32.6475 -32.6461
     1.0615  10.8680  12.3699  12.3990  13.5155  15.4058  16.0630  16.1448
    16.4746  16.5168  17.4470  18.2331  18.3237  18.6235  18.6585  19.2549
    19.5475  19.7155  19.8096  20.1301  20.3508  20.3763  20.5341  20.6671
    23.2544  23.4790

          k = 0.1111 0.1111 0.4444 ( 15998 PWs)   bands (ev):

   -67.3413 -67.3217 -67.3049 -66.5348 -34.0402 -33.9601 -33.9206 -33.2564
   -33.2503 -33.2199 -33.1939 -33.1923 -33.1707 -32.6605 -32.6522 -32.6479
     1.2201  10.3941  12.2893  12.3295  14.0812  15.0140  16.3634  16.3823
    16.6154  16.8202  17.1838  17.9897  18.2136  18.7872  18.8092  19.0182
    19.2799  19.6463  19.6873  20.0051  20.1068  20.3069  20.5545  20.6459
    23.2676  23.5690

          k = 0.1111 0.2222 0.2222 ( 15999 PWs)   bands (ev):

   -67.3500 -67.3109 -67.3073 -66.5346 -34.0487 -33.9565 -33.9258 -33.2588
   -33.2402 -33.2389 -33.1905 -33.1875 -33.1656 -32.6596 -32.6453 -32.6426
     1.0202  11.5142  11.7664  12.3870  13.3761  15.7044  15.8409  16.1110
    16.3313  16.3849  17.6416  18.2107  18.2628  18.5892  18.6017  19.4316
    19.5365  19.8335  19.8427  20.2439  20.4423  20.4845  20.7326  20.8286
    23.2304  23.9474

          k = 0.1111 0.2222 0.3333 ( 15979 PWs)   bands (ev):

   -67.3439 -67.3159 -67.3080 -66.5347 -34.0657 -33.9526 -33.9041 -33.2734
   -33.2498 -33.2379 -33.1877 -33.1853 -33.1550 -32.6605 -32.6483 -32.6445
     1.2466  10.8575  11.6116  12.2610  13.7620  15.6578  16.1554  16.3304
    16.5271  16.6653  17.4262  17.9406  18.1449  18.6006  18.6608  19.2781
    19.3045  19.7070  19.8063  20.0897  20.3804  20.4334  20.7264  20.8364
    23.1214  23.7698

          k = 0.1111 0.2222 0.4444 ( 15979 PWs)   bands (ev):

   -67.3380 -67.3215 -67.3081 -66.5348 -34.0745 -33.9504 -33.8917 -33.2814
   -33.2556 -33.2367 -33.1859 -33.1851 -33.1492 -32.6578 -32.6528 -32.6465
     1.4064  10.3801  11.5687  12.1836  14.2831  15.2976  16.4054  16.5686
    16.6593  16.9776  17.1955  17.6109  18.0538  18.6268  18.8411  19.0777
    19.1793  19.7031  19.8060  19.9541  20.3196  20.3831  20.4881  20.8721
    23.1472  23.7264

          k = 0.1111 0.3333 0.3333 ( 15996 PWs)   bands (ev):

   -67.3386 -67.3175 -67.3115 -66.5349 -34.0888 -33.9482 -33.8790 -33.2922
   -33.2525 -33.2491 -33.1847 -33.1829 -33.1379 -32.6595 -32.6495 -32.6444
     1.4751  10.8124  10.8547  12.1297  14.1547  15.9505  16.0732  16.5539
    16.6812  16.8732  17.3268  17.6479  17.9843  18.5073  18.7406  19.0988
    19.3924  19.5426  19.9239  19.9250  20.2617  20.4112  20.8985  20.9780
    22.5961  24.2110

          k = 0.1111 0.3333 0.4444 ( 15986 PWs)   bands (ev):

   -67.3330 -67.3215 -67.3130 -66.5349 -34.1011 -33.9459 -33.8646 -33.3023
   -33.2584 -33.2514 -33.1831 -33.1824 -33.1284 -32.6576 -32.6499 -32.6458
     1.6368  10.3568  10.8091  12.0487  14.6042  15.6785  16.2442  16.7773
    16.8627  17.0624  17.1775  17.4109  17.9284  18.4037  18.8156  18.9913
    19.3558  19.5851  19.7345  19.9965  20.1409  20.5095  20.7321  21.0730
    22.3520  24.2448

          k = 0.1111 0.4444 0.4444 ( 15977 PWs)   bands (ev):

   -67.3273 -67.3218 -67.3181 -66.5350 -34.1153 -33.9436 -33.8492 -33.3134
   -33.2605 -33.2598 -33.1818 -33.1816 -33.1169 -32.6581 -32.6470 -32.6457
     1.8002  10.3372  10.3388  11.9662  14.9331  15.9995  16.0393  16.8469
    16.9393  17.0014  17.1564  17.6200  17.8811  18.1382  18.6868  19.0343
    19.4390  19.5800  19.6275  19.9199  19.9909  20.7272  20.8655  21.1312
    21.8235  24.5855

          k = 0.2222 0.2222 0.2222 ( 15987 PWs)   bands (ev):

   -67.3462 -67.3108 -67.3108 -66.5347 -34.0774 -33.9239 -33.9239 -33.2612
   -33.2612 -33.2585 -33.1745 -33.1745 -33.1597 -32.6626 -32.6430 -32.6430
     1.2053  11.5057  11.6333  11.6333  13.6118  15.9657  15.9657  16.3811
    16.3961  16.3961  17.6134  18.0860  18.0860  18.6336  18.6336  19.2216
    19.2256  19.7409  19.7409  20.3383  20.4371  20.4371  21.0802  21.0802
    23.3973  23.8154

          k = 0.2222 0.2222 0.3333 ( 15986 PWs)   bands (ev):

   -67.3408 -67.3161 -67.3108 -66.5348 -34.0995 -33.9216 -33.8972 -33.2783
   -33.2760 -33.2614 -33.1695 -33.1641 -33.1502 -32.6616 -32.6445 -32.6434
     1.4337  10.8143  11.4942  11.5404  14.0010  15.8917  16.3473  16.3801
    16.5659  16.7439  17.4589  17.8193  17.9648  18.6057  18.6850  18.9746
    19.2132  19.6810  19.7894  20.2385  20.3909  20.4170  20.9558  21.2855
    23.3374  23.6138

          k = 0.2222 0.2222 0.4444 ( 15978 PWs)   bands (ev):

   -67.3353 -67.3215 -67.3108 -66.5349 -34.1112 -33.9201 -33.8825 -33.2877
   -33.2847 -33.2624 -33.1678 -33.1592 -33.1441 -32.6570 -32.6493 -32.6438
     1.5953  10.3373  11.4093  11.5221  14.4638  15.5469  16.4098  16.6963
    16.7871  17.0773  17.2510  17.4546  17.9243  18.6154  18.7203  18.7987
    19.2517  19.7833  19.8995  20.1211  20.3448  20.3568  20.5389  21.3919
    23.3747  23.4640

          k = 0.2222 0.3333 0.3333 ( 15953 PWs)   bands (ev):

   -67.3361 -67.3175 -67.3139 -66.5349 -34.1263 -33.9092 -33.8780 -33.2981
   -33.2826 -33.2787 -33.1586 -33.1567 -33.1370 -32.6590 -32.6436 -32.6426
     1.6652  10.7518  10.7598  11.4198  14.3573  16.1251  16.1725  16.5859
    16.7955  16.9206  17.4226  17.6827  17.8431  18.5147  18.6475  18.7610
    19.3525  19.6421  19.8904  20.1763  20.3803  20.3974  21.0669  21.4861
    22.7513  23.7079

          k = 0.2222 0.3333 0.4444 ( 15959 PWs)   bands (ev):

   -67.3312 -67.3214 -67.3147 -66.5349 -34.1407 -33.9063 -33.8634 -33.3093
   -33.2913 -33.2831 -33.1562 -33.1520 -33.1279 -32.6544 -32.6454 -32.6423
     1.8295  10.2853  10.7138  11.3580  14.7230  15.8567  16.2686  16.8384
    17.0106  17.0609  17.3086  17.5571  17.8459  18.4190  18.5337  18.7260
    19.4678  19.7472  19.9625  20.0611  20.3210  20.4542  20.7321  21.6896
    22.3542  23.6881

          k = 0.2222 0.4444 0.4444 ( 15970 PWs)   bands (ev):

   -67.3265 -67.3218 -67.3189 -66.5350 -34.1568 -33.9024 -33.8491 -33.3213
   -33.2950 -33.2943 -33.1508 -33.1505 -33.1168 -32.6515 -32.6429 -32.6425
     1.9961  10.2479  10.2520  11.2850  14.9443  16.0837  16.1700  16.6778
    17.2033  17.2399  17.3383  17.7453  17.8433  18.1948  18.3674  18.7274
    19.6940  19.7349  19.8892  19.9598  20.2298  20.6465  20.8150  21.6135
    21.8564  23.8903

          k = 0.3333 0.3333 0.3333 ( 15978 PWs)   bands (ev):

   -67.3324 -67.3174 -67.3174 -66.5349 -34.1569 -33.8770 -33.8770 -33.3059
   -33.3059 -33.3000 -33.1404 -33.1404 -33.1334 -32.6546 -32.6406 -32.6406
     1.9013  10.6410  10.6410  10.7351  14.6291  16.0839  16.4465  16.4465
    17.0957  17.0957  17.5101  17.7472  17.7472  18.4506  18.5255  18.5255
    19.5064  19.8515  19.8515  20.2897  20.3761  20.3761  21.3675  21.3675
    22.9690  22.9690

          k = 0.3333 0.3333 0.4444 ( 15960 PWs)   bands (ev):

   -67.3284 -67.3214 -67.3174 -66.5349 -34.1736 -33.8763 -33.8592 -33.3185
   -33.3146 -33.3076 -33.1378 -33.1313 -33.1257 -32.6491 -32.6412 -32.6392
     2.0695  10.2050  10.5719  10.6655  14.8542  16.0352  16.2876  16.6328
    17.3154  17.3326  17.5108  17.7316  17.8243  18.2899  18.4213  18.5172
    19.6668  19.9043  20.0203  20.2101  20.3907  20.4082  20.7760  21.7175
    22.3423  23.1531

          k = 0.3333 0.4444 0.4444 ( 15948 PWs)   bands (ev):

   -67.3251 -67.3218 -67.3202 -66.5349 -34.1915 -33.8678 -33.8489 -33.3301
   -33.3215 -33.3207 -33.1285 -33.1282 -33.1167 -32.6439 -32.6388 -32.6386
     2.2410  10.1490  10.1585  10.5577  14.9331  16.1687  16.2822  16.4795
    17.5926  17.5995  17.6672  17.8602  17.8666  18.1335  18.3001  18.4925
    19.8639  19.9512  20.0418  20.1416  20.4198  20.4854  20.7229  21.2312
    22.3662  23.1197

          k = 0.4444 0.4444 0.4444 ( 15948 PWs)   bands (ev):

   -67.3235 -67.3217 -67.3217 -66.5349 -34.2107 -33.8488 -33.8488 -33.3358
   -33.3358 -33.3348 -33.1170 -33.1170 -33.1161 -32.6384 -32.6363 -32.6363
     2.4168  10.0868  10.0868  10.1094  14.9149  16.2387  16.3300  16.3300
    17.8949  17.8949  17.9811  17.9811  17.9853  18.0024  18.3664  18.3664
    20.0132  20.0711  20.0711  20.2605  20.3448  20.3448  20.7350  20.7350
    22.6689  22.6689

     the Fermi energy is    18.7319 ev

!    total energy              =   -1345.17142830 Ry
     Harris-Foulkes estimate   =   -1345.17142830 Ry
     estimated scf accuracy    <          2.1E-09 Ry

     total all-electron energy =    -10291.773064 Ry

     The total energy is the sum of the following terms:

     one-electron contribution =    -446.73800280 Ry
     hartree contribution      =     269.20276265 Ry
     xc contribution           =    -117.08739357 Ry
     ewald contribution        =    -711.61403732 Ry
     one-center paw contrib.   =    -338.93484794 Ry
     smearing contrib. (-TS)   =       0.00009069 Ry

     total magnetization       =     7.68 Bohr mag/cell
     absolute magnetization    =     8.03 Bohr mag/cell

     convergence has been achieved in  27 iterations

     Forces acting on atoms (Ry/au):


     negative rho (up, down):  0.000E+00 1.974E-04
     atom    1 type  1   force =     0.00000000    0.00000000    0.00000000
     atom    2 type  1   force =     0.00000000    0.00000000    0.00000000
     atom    3 type  1   force =     0.00000000    0.00000000    0.00000000
     atom    4 type  1   force =     0.00000000    0.00000000    0.00000000
     atom    5 type  2   force =     0.00000000    0.00000000    0.00000000

     Total force =     0.000000     Total SCF correction =     0.000000


     entering subroutine stress ...


     negative rho (up, down):  0.000E+00 1.974E-04
          total   stress  (Ry/bohr**3)                   (kbar)     P=  150.07
   0.00102015   0.00000000   0.00000000        150.07      0.00      0.00
   0.00000000   0.00102015   0.00000000          0.00    150.07      0.00
   0.00000000   0.00000000   0.00102015          0.00      0.00    150.07


     Writing output data file config.save

 %%%%%%%%%%%%%%%%%%%%%%%%%%%%%%%%%%%%%%%%%%%%%%%%%%%%%%%%%%%%%%%%%%%%%%%%%%%%%%
     Error in routine davcio (10):
     error while writing from file "/kyukon/home/gent/437/vsc43752/compmathphys/task1/bss/output/config.wfc6"
 %%%%%%%%%%%%%%%%%%%%%%%%%%%%%%%%%%%%%%%%%%%%%%%%%%%%%%%%%%%%%%%%%%%%%%%%%%%%%%

     stopping ...

 %%%%%%%%%%%%%%%%%%%%%%%%%%%%%%%%%%%%%%%%%%%%%%%%%%%%%%%%%%%%%%%%%%%%%%%%%%%%%%
     Error in routine davcio (10):
     error while writing from file "/kyukon/home/gent/437/vsc43752/compmathphys/task1/bss/output/config.wfc2"
 %%%%%%%%%%%%%%%%%%%%%%%%%%%%%%%%%%%%%%%%%%%%%%%%%%%%%%%%%%%%%%%%%%%%%%%%%%%%%%

     stopping ...

 %%%%%%%%%%%%%%%%%%%%%%%%%%%%%%%%%%%%%%%%%%%%%%%%%%%%%%%%%%%%%%%%%%%%%%%%%%%%%%
     Error in routine davcio (10):
     error while writing from file "/kyukon/home/gent/437/vsc43752/compmathphys/task1/bss/output/config.wfc5"
 %%%%%%%%%%%%%%%%%%%%%%%%%%%%%%%%%%%%%%%%%%%%%%%%%%%%%%%%%%%%%%%%%%%%%%%%%%%%%%

     stopping ...

 %%%%%%%%%%%%%%%%%%%%%%%%%%%%%%%%%%%%%%%%%%%%%%%%%%%%%%%%%%%%%%%%%%%%%%%%%%%%%%
     Error in routine davcio (10):
     error while writing from file "/kyukon/home/gent/437/vsc43752/compmathphys/task1/bss/output/config.wfc3"
 %%%%%%%%%%%%%%%%%%%%%%%%%%%%%%%%%%%%%%%%%%%%%%%%%%%%%%%%%%%%%%%%%%%%%%%%%%%%%%

     stopping ...

 %%%%%%%%%%%%%%%%%%%%%%%%%%%%%%%%%%%%%%%%%%%%%%%%%%%%%%%%%%%%%%%%%%%%%%%%%%%%%%
     Error in routine davcio (10):
     error while writing from file "/kyukon/home/gent/437/vsc43752/compmathphys/task1/bss/output/config.wfc4"
 %%%%%%%%%%%%%%%%%%%%%%%%%%%%%%%%%%%%%%%%%%%%%%%%%%%%%%%%%%%%%%%%%%%%%%%%%%%%%%

     stopping ...

 %%%%%%%%%%%%%%%%%%%%%%%%%%%%%%%%%%%%%%%%%%%%%%%%%%%%%%%%%%%%%%%%%%%%%%%%%%%%%%
     Error in routine davcio (10):
     error while writing from file "/kyukon/home/gent/437/vsc43752/compmathphys/task1/bss/output/config.wfc1"
 %%%%%%%%%%%%%%%%%%%%%%%%%%%%%%%%%%%%%%%%%%%%%%%%%%%%%%%%%%%%%%%%%%%%%%%%%%%%%%

     stopping ...
