
     Program PWSCF v.5.2.0 starts on 27Oct2020 at  1:23:47 

     This program is part of the open-source Quantum ESPRESSO suite
     for quantum simulation of materials; please cite
         "P. Giannozzi et al., J. Phys.:Condens. Matter 21 395502 (2009);
          URL http://www.quantum-espresso.org", 
     in publications or presentations arising from this work. More details at
     http://www.quantum-espresso.org/quote

     Parallel version (MPI), running on     6 processors
     R & G space division:  proc/nbgrp/npool/nimage =       6
     Reading input from 17.in

     Current dimensions of program PWSCF are:
     Max number of different atomic species (ntypx) = 10
     Max number of k-points (npk) =  40000
     Max angular momentum in pseudopotentials (lmaxx) =  3

     IMPORTANT: XC functional enforced from input :
     Exchange-correlation      = PBE ( 1  4  3  4 0 0)
     Any further DFT definition will be discarded
     Please, verify this is what you really want

               file Fe_PSEUDO: wavefunction(s)  3P 3D renormalized
               file N_PSEUDO: wavefunction(s)  2S renormalized

     Subspace diagonalization in iterative solution of the eigenvalue problem:
     a serial algorithm will be used

 
     Parallelization info
     --------------------
     sticks:   dense  smooth     PW     G-vecs:    dense   smooth      PW
     Min         842     563    155                45182    24602    3539
     Max         843     564    156                45183    24620    3542
     Sum        5057    3381    933               271097   147661   21247
 
     Generating pointlists ...
     new r_m :   0.2063 (alat units)  1.4318 (a.u.) for type    1
     new r_m :   0.2063 (alat units)  1.4318 (a.u.) for type    2


     bravais-lattice index     =            0
     lattice parameter (alat)  =       6.9422  a.u.
     unit-cell volume          =     334.5777 (a.u.)^3
     number of atoms/cell      =            5
     number of atomic types    =            2
     number of electrons       =        69.00
     number of Kohn-Sham states=           42
     kinetic-energy cutoff     =     220.0000  Ry
     charge density cutoff     =    1320.0000  Ry
     convergence threshold     =      1.0E-08
     mixing beta               =       0.7000
     number of iterations used =            8  plain     mixing
     Exchange-correlation      = PBE ( 1  4  3  4 0 0)

     celldm(1)=   6.942230  celldm(2)=   0.000000  celldm(3)=   0.000000
     celldm(4)=   0.000000  celldm(5)=   0.000000  celldm(6)=   0.000000

     crystal axes: (cart. coord. in units of alat)
               a(1) = (   1.000000   0.000000   0.000000 )  
               a(2) = (   0.000000   1.000000   0.000000 )  
               a(3) = (   0.000000   0.000000   1.000000 )  

     reciprocal axes: (cart. coord. in units 2 pi/alat)
               b(1) = (  1.000000  0.000000  0.000000 )  
               b(2) = (  0.000000  1.000000  0.000000 )  
               b(3) = (  0.000000  0.000000  1.000000 )  


     PseudoPot. # 1 for Fe read from file:
     pseudo/Fe_PSEUDO
     MD5 check sum: e30d5f36a6f0cb983ee41abee56170da
     Pseudo is Projector augmented-wave + core cor, Zval = 16.0
     Generated using "atomic" code by A. Dal Corso  v.6.3
     Shape of augmentation charge: PSQ
     Using radial grid of 1191 points,  6 beta functions with: 
                l(1) =   0
                l(2) =   0
                l(3) =   1
                l(4) =   1
                l(5) =   2
                l(6) =   2
     Q(r) pseudized with 0 coefficients 


     PseudoPot. # 2 for  N read from file:
     pseudo/N_PSEUDO
     MD5 check sum: 14c48229446f9f2d411169a3abcbc3fa
     Pseudo is Projector augmented-wave + core cor, Zval =  5.0
     Generated using "atomic" code by A. Dal Corso  v.6.3
     Shape of augmentation charge: PSQ
     Using radial grid of 1085 points,  4 beta functions with: 
                l(1) =   0
                l(2) =   0
                l(3) =   1
                l(4) =   1
     Q(r) pseudized with 0 coefficients 


     atomic species   valence    mass     pseudopotential
        Fe            16.00    55.84500     Fe( 1.00)
        N              5.00    14.00650      N( 1.00)

     Starting magnetic structure 
     atomic species   magnetization
        Fe           0.500
        N           -0.010

     48 Sym. Ops., with inversion, found



   Cartesian axes

     site n.     atom                  positions (alat units)
         1           Fe  tau(   1) = (   0.0000000   0.5000000   0.5000000  )
         2           Fe  tau(   2) = (   0.5000000   0.5000000   0.0000000  )
         3           Fe  tau(   3) = (   0.5000000   0.0000000   0.5000000  )
         4           Fe  tau(   4) = (   0.0000000   0.0000000   0.0000000  )
         5           N   tau(   5) = (   0.5000000   0.5000000   0.5000000  )

     number of k points=    70  Marzari-Vanderbilt smearing, width (Ry)=  0.0050
                       cart. coord. in units 2pi/alat
        k(    1) = (   0.0000000   0.0000000   0.0000000), wk =   0.0013717
        k(    2) = (   0.0000000   0.0000000   0.1111111), wk =   0.0082305
        k(    3) = (   0.0000000   0.0000000   0.2222222), wk =   0.0082305
        k(    4) = (   0.0000000   0.0000000   0.3333333), wk =   0.0082305
        k(    5) = (   0.0000000   0.0000000   0.4444444), wk =   0.0082305
        k(    6) = (   0.0000000   0.1111111   0.1111111), wk =   0.0164609
        k(    7) = (   0.0000000   0.1111111   0.2222222), wk =   0.0329218
        k(    8) = (   0.0000000   0.1111111   0.3333333), wk =   0.0329218
        k(    9) = (   0.0000000   0.1111111   0.4444444), wk =   0.0329218
        k(   10) = (   0.0000000   0.2222222   0.2222222), wk =   0.0164609
        k(   11) = (   0.0000000   0.2222222   0.3333333), wk =   0.0329218
        k(   12) = (   0.0000000   0.2222222   0.4444444), wk =   0.0329218
        k(   13) = (   0.0000000   0.3333333   0.3333333), wk =   0.0164609
        k(   14) = (   0.0000000   0.3333333   0.4444444), wk =   0.0329218
        k(   15) = (   0.0000000   0.4444444   0.4444444), wk =   0.0164609
        k(   16) = (   0.1111111   0.1111111   0.1111111), wk =   0.0109739
        k(   17) = (   0.1111111   0.1111111   0.2222222), wk =   0.0329218
        k(   18) = (   0.1111111   0.1111111   0.3333333), wk =   0.0329218
        k(   19) = (   0.1111111   0.1111111   0.4444444), wk =   0.0329218
        k(   20) = (   0.1111111   0.2222222   0.2222222), wk =   0.0329218
        k(   21) = (   0.1111111   0.2222222   0.3333333), wk =   0.0658436
        k(   22) = (   0.1111111   0.2222222   0.4444444), wk =   0.0658436
        k(   23) = (   0.1111111   0.3333333   0.3333333), wk =   0.0329218
        k(   24) = (   0.1111111   0.3333333   0.4444444), wk =   0.0658436
        k(   25) = (   0.1111111   0.4444444   0.4444444), wk =   0.0329218
        k(   26) = (   0.2222222   0.2222222   0.2222222), wk =   0.0109739
        k(   27) = (   0.2222222   0.2222222   0.3333333), wk =   0.0329218
        k(   28) = (   0.2222222   0.2222222   0.4444444), wk =   0.0329218
        k(   29) = (   0.2222222   0.3333333   0.3333333), wk =   0.0329218
        k(   30) = (   0.2222222   0.3333333   0.4444444), wk =   0.0658436
        k(   31) = (   0.2222222   0.4444444   0.4444444), wk =   0.0329218
        k(   32) = (   0.3333333   0.3333333   0.3333333), wk =   0.0109739
        k(   33) = (   0.3333333   0.3333333   0.4444444), wk =   0.0329218
        k(   34) = (   0.3333333   0.4444444   0.4444444), wk =   0.0329218
        k(   35) = (   0.4444444   0.4444444   0.4444444), wk =   0.0109739
        k(   36) = (   0.0000000   0.0000000   0.0000000), wk =   0.0013717
        k(   37) = (   0.0000000   0.0000000   0.1111111), wk =   0.0082305
        k(   38) = (   0.0000000   0.0000000   0.2222222), wk =   0.0082305
        k(   39) = (   0.0000000   0.0000000   0.3333333), wk =   0.0082305
        k(   40) = (   0.0000000   0.0000000   0.4444444), wk =   0.0082305
        k(   41) = (   0.0000000   0.1111111   0.1111111), wk =   0.0164609
        k(   42) = (   0.0000000   0.1111111   0.2222222), wk =   0.0329218
        k(   43) = (   0.0000000   0.1111111   0.3333333), wk =   0.0329218
        k(   44) = (   0.0000000   0.1111111   0.4444444), wk =   0.0329218
        k(   45) = (   0.0000000   0.2222222   0.2222222), wk =   0.0164609
        k(   46) = (   0.0000000   0.2222222   0.3333333), wk =   0.0329218
        k(   47) = (   0.0000000   0.2222222   0.4444444), wk =   0.0329218
        k(   48) = (   0.0000000   0.3333333   0.3333333), wk =   0.0164609
        k(   49) = (   0.0000000   0.3333333   0.4444444), wk =   0.0329218
        k(   50) = (   0.0000000   0.4444444   0.4444444), wk =   0.0164609
        k(   51) = (   0.1111111   0.1111111   0.1111111), wk =   0.0109739
        k(   52) = (   0.1111111   0.1111111   0.2222222), wk =   0.0329218
        k(   53) = (   0.1111111   0.1111111   0.3333333), wk =   0.0329218
        k(   54) = (   0.1111111   0.1111111   0.4444444), wk =   0.0329218
        k(   55) = (   0.1111111   0.2222222   0.2222222), wk =   0.0329218
        k(   56) = (   0.1111111   0.2222222   0.3333333), wk =   0.0658436
        k(   57) = (   0.1111111   0.2222222   0.4444444), wk =   0.0658436
        k(   58) = (   0.1111111   0.3333333   0.3333333), wk =   0.0329218
        k(   59) = (   0.1111111   0.3333333   0.4444444), wk =   0.0658436
        k(   60) = (   0.1111111   0.4444444   0.4444444), wk =   0.0329218
        k(   61) = (   0.2222222   0.2222222   0.2222222), wk =   0.0109739
        k(   62) = (   0.2222222   0.2222222   0.3333333), wk =   0.0329218
        k(   63) = (   0.2222222   0.2222222   0.4444444), wk =   0.0329218
        k(   64) = (   0.2222222   0.3333333   0.3333333), wk =   0.0329218
        k(   65) = (   0.2222222   0.3333333   0.4444444), wk =   0.0658436
        k(   66) = (   0.2222222   0.4444444   0.4444444), wk =   0.0329218
        k(   67) = (   0.3333333   0.3333333   0.3333333), wk =   0.0109739
        k(   68) = (   0.3333333   0.3333333   0.4444444), wk =   0.0329218
        k(   69) = (   0.3333333   0.4444444   0.4444444), wk =   0.0329218
        k(   70) = (   0.4444444   0.4444444   0.4444444), wk =   0.0109739

     Dense  grid:   271097 G-vectors     FFT dimensions: (  81,  81,  81)

     Smooth grid:   147661 G-vectors     FFT dimensions: (  72,  72,  72)

     Largest allocated arrays     est. size (Mb)     dimensions
        Kohn-Sham Wavefunctions         1.98 Mb     (    3092,   42)
        NL pseudopotentials             3.77 Mb     (    3092,   80)
        Each V/rho on FFT grid          2.80 Mb     (   91854,   2)
        Each G-vector array             0.34 Mb     (   45182)
        G-vector shells                 0.01 Mb     (    1342)
     Largest temporary arrays     est. size (Mb)     dimensions
        Auxiliary wavefunctions         7.93 Mb     (    3092,  168)
        Each subspace H/S matrix        0.43 Mb     (     168,  168)
        Each <psi_i|beta_j> matrix      0.05 Mb     (      80,   42)
        Arrays for rho mixing          11.21 Mb     (   91854,    8)

     Initial potential from superposition of free atoms

     starting charge   68.99837, renormalised to   69.00000
     Starting wfc are   44 randomized atomic wfcs
     Checking if some PAW data can be deallocated... 

     total cpu time spent up to now is       11.7 secs

     per-process dynamical memory:   209.2 Mb

     Self-consistent Calculation

     iteration #  1     ecut=   220.00 Ry     beta=0.70
     Davidson diagonalization with overlap
     ethr =  1.00E-02,  avg # of iterations =  3.1

     negative rho (up, down):  0.000E+00 4.704E-04
 
     Magnetic moment per site:
     atom:    1    charge:   12.7335    magn:    4.0980    constr:    0.0000
     atom:    2    charge:   12.7335    magn:    4.0980    constr:    0.0000
     atom:    3    charge:   12.7335    magn:    4.0980    constr:    0.0000
     atom:    4    charge:   12.6133    magn:    4.1668    constr:    0.0000
     atom:    5    charge:    4.6360    magn:    0.1187    constr:    0.0000

     total cpu time spent up to now is       37.3 secs

     total energy              =   -1344.14445067 Ry
     Harris-Foulkes estimate   =   -1343.44699528 Ry
     estimated scf accuracy    <       2.86653086 Ry

     total magnetization       =    13.87 Bohr mag/cell
     absolute magnetization    =    14.05 Bohr mag/cell

     iteration #  2     ecut=   220.00 Ry     beta=0.70
     Davidson diagonalization with overlap
     ethr =  4.15E-03,  avg # of iterations =  3.3

     negative rho (up, down):  0.000E+00 4.450E-04
 
     Magnetic moment per site:
     atom:    1    charge:   12.7243    magn:    3.8175    constr:    0.0000
     atom:    2    charge:   12.7243    magn:    3.8175    constr:    0.0000
     atom:    3    charge:   12.7243    magn:    3.8175    constr:    0.0000
     atom:    4    charge:   13.0646    magn:    3.5705    constr:    0.0000
     atom:    5    charge:    4.2266    magn:    0.0574    constr:    0.0000

     total cpu time spent up to now is       64.1 secs

     total energy              =   -1343.30035375 Ry
     Harris-Foulkes estimate   =   -1345.75190103 Ry
     estimated scf accuracy    <       8.53225717 Ry

     total magnetization       =     9.38 Bohr mag/cell
     absolute magnetization    =    10.50 Bohr mag/cell

     iteration #  3     ecut=   220.00 Ry     beta=0.70
     Davidson diagonalization with overlap
     ethr =  4.15E-03,  avg # of iterations =  3.5

     negative rho (up, down):  0.000E+00 2.388E-04
 
     Magnetic moment per site:
     atom:    1    charge:   12.8851    magn:    3.4484    constr:    0.0000
     atom:    2    charge:   12.8851    magn:    3.4484    constr:    0.0000
     atom:    3    charge:   12.8851    magn:    3.4484    constr:    0.0000
     atom:    4    charge:   12.8119    magn:    3.0178    constr:    0.0000
     atom:    5    charge:    4.0302    magn:    0.0244    constr:    0.0000

     total cpu time spent up to now is       89.7 secs

     total energy              =   -1343.62300319 Ry
     Harris-Foulkes estimate   =   -1346.18938116 Ry
     estimated scf accuracy    <      25.51849156 Ry

     total magnetization       =     3.80 Bohr mag/cell
     absolute magnetization    =     4.50 Bohr mag/cell

     iteration #  4     ecut=   220.00 Ry     beta=0.70
     Davidson diagonalization with overlap
     ethr =  4.15E-03,  avg # of iterations =  3.2

     negative rho (up, down):  0.000E+00 6.530E-04
 
     Magnetic moment per site:
     atom:    1    charge:   12.7744    magn:    2.2626    constr:    0.0000
     atom:    2    charge:   12.7744    magn:    2.2626    constr:    0.0000
     atom:    3    charge:   12.7744    magn:    2.2626    constr:    0.0000
     atom:    4    charge:   12.7282    magn:    1.8790    constr:    0.0000
     atom:    5    charge:    4.0532    magn:   -0.0485    constr:    0.0000

     total cpu time spent up to now is      111.8 secs

     total energy              =   -1345.03019075 Ry
     Harris-Foulkes estimate   =   -1345.10780329 Ry
     estimated scf accuracy    <       0.54811669 Ry

     total magnetization       =    10.75 Bohr mag/cell
     absolute magnetization    =    11.16 Bohr mag/cell

     iteration #  5     ecut=   220.00 Ry     beta=0.70
     Davidson diagonalization with overlap
     ethr =  7.94E-04,  avg # of iterations =  3.3

     negative rho (up, down):  0.000E+00 4.827E-04
 
     Magnetic moment per site:
     atom:    1    charge:   12.8334    magn:    2.1628    constr:    0.0000
     atom:    2    charge:   12.8334    magn:    2.1628    constr:    0.0000
     atom:    3    charge:   12.8334    magn:    2.1628    constr:    0.0000
     atom:    4    charge:   12.8039    magn:    2.0422    constr:    0.0000
     atom:    5    charge:    4.1100    magn:   -0.0267    constr:    0.0000

     total cpu time spent up to now is      137.1 secs

     total energy              =   -1345.11559278 Ry
     Harris-Foulkes estimate   =   -1345.20308133 Ry
     estimated scf accuracy    <       0.24168547 Ry

     total magnetization       =     9.59 Bohr mag/cell
     absolute magnetization    =     9.95 Bohr mag/cell

     iteration #  6     ecut=   220.00 Ry     beta=0.70
     Davidson diagonalization with overlap
     ethr =  3.50E-04,  avg # of iterations =  3.0

     negative rho (up, down):  0.000E+00 3.436E-04
 
     Magnetic moment per site:
     atom:    1    charge:   12.8272    magn:    2.1149    constr:    0.0000
     atom:    2    charge:   12.8272    magn:    2.1149    constr:    0.0000
     atom:    3    charge:   12.8272    magn:    2.1149    constr:    0.0000
     atom:    4    charge:   12.7928    magn:    2.3707    constr:    0.0000
     atom:    5    charge:    4.1120    magn:    0.0066    constr:    0.0000

     total cpu time spent up to now is      160.7 secs

     total energy              =   -1345.16245633 Ry
     Harris-Foulkes estimate   =   -1345.15822528 Ry
     estimated scf accuracy    <       0.02605576 Ry

     total magnetization       =     9.38 Bohr mag/cell
     absolute magnetization    =     9.72 Bohr mag/cell

     iteration #  7     ecut=   220.00 Ry     beta=0.70
     Davidson diagonalization with overlap
     ethr =  3.78E-05,  avg # of iterations =  1.7

     negative rho (up, down):  0.000E+00 3.081E-04
 
     Magnetic moment per site:
     atom:    1    charge:   12.8279    magn:    1.9573    constr:    0.0000
     atom:    2    charge:   12.8279    magn:    1.9573    constr:    0.0000
     atom:    3    charge:   12.8279    magn:    1.9573    constr:    0.0000
     atom:    4    charge:   12.7725    magn:    2.8105    constr:    0.0000
     atom:    5    charge:    4.1113    magn:    0.0392    constr:    0.0000

     total cpu time spent up to now is      180.8 secs

     total energy              =   -1345.16234476 Ry
     Harris-Foulkes estimate   =   -1345.16422549 Ry
     estimated scf accuracy    <       0.01801424 Ry

     total magnetization       =     9.38 Bohr mag/cell
     absolute magnetization    =     9.71 Bohr mag/cell

     iteration #  8     ecut=   220.00 Ry     beta=0.70
     Davidson diagonalization with overlap
     ethr =  2.61E-05,  avg # of iterations =  2.2

     negative rho (up, down):  0.000E+00 2.678E-04
 
     Magnetic moment per site:
     atom:    1    charge:   12.8310    magn:    1.8626    constr:    0.0000
     atom:    2    charge:   12.8310    magn:    1.8626    constr:    0.0000
     atom:    3    charge:   12.8310    magn:    1.8626    constr:    0.0000
     atom:    4    charge:   12.7749    magn:    2.7252    constr:    0.0000
     atom:    5    charge:    4.1091    magn:    0.0310    constr:    0.0000

     total cpu time spent up to now is      202.5 secs

     total energy              =   -1345.16735437 Ry
     Harris-Foulkes estimate   =   -1345.16638090 Ry
     estimated scf accuracy    <       0.00209605 Ry

     total magnetization       =     9.00 Bohr mag/cell
     absolute magnetization    =     9.35 Bohr mag/cell

     iteration #  9     ecut=   220.00 Ry     beta=0.70
     Davidson diagonalization with overlap
     ethr =  3.04E-06,  avg # of iterations =  2.1

     negative rho (up, down):  0.000E+00 3.791E-04
 
     Magnetic moment per site:
     atom:    1    charge:   12.8289    magn:    1.9949    constr:    0.0000
     atom:    2    charge:   12.8289    magn:    1.9949    constr:    0.0000
     atom:    3    charge:   12.8289    magn:    1.9949    constr:    0.0000
     atom:    4    charge:   12.7739    magn:    2.7581    constr:    0.0000
     atom:    5    charge:    4.1139    magn:    0.0387    constr:    0.0000

     total cpu time spent up to now is      222.9 secs

     total energy              =   -1345.16481068 Ry
     Harris-Foulkes estimate   =   -1345.16817709 Ry
     estimated scf accuracy    <       0.00201919 Ry

     total magnetization       =     8.59 Bohr mag/cell
     absolute magnetization    =     8.97 Bohr mag/cell

     iteration # 10     ecut=   220.00 Ry     beta=0.70
     Davidson diagonalization with overlap
     ethr =  2.93E-06,  avg # of iterations =  1.9

     negative rho (up, down):  0.000E+00 4.579E-04
 
     Magnetic moment per site:
     atom:    1    charge:   12.8274    magn:    2.0794    constr:    0.0000
     atom:    2    charge:   12.8274    magn:    2.0794    constr:    0.0000
     atom:    3    charge:   12.8274    magn:    2.0794    constr:    0.0000
     atom:    4    charge:   12.7749    magn:    2.7414    constr:    0.0000
     atom:    5    charge:    4.1174    magn:    0.0452    constr:    0.0000

     total cpu time spent up to now is      243.0 secs

     total energy              =   -1345.16458387 Ry
     Harris-Foulkes estimate   =   -1345.16624750 Ry
     estimated scf accuracy    <       0.00219539 Ry

     total magnetization       =     9.10 Bohr mag/cell
     absolute magnetization    =     9.44 Bohr mag/cell

     iteration # 11     ecut=   220.00 Ry     beta=0.70
     Davidson diagonalization with overlap
     ethr =  2.93E-06,  avg # of iterations =  1.7

     negative rho (up, down):  0.000E+00 2.099E-04
 
     Magnetic moment per site:
     atom:    1    charge:   12.8342    magn:    1.7233    constr:    0.0000
     atom:    2    charge:   12.8342    magn:    1.7233    constr:    0.0000
     atom:    3    charge:   12.8342    magn:    1.7233    constr:    0.0000
     atom:    4    charge:   12.7748    magn:    2.6964    constr:    0.0000
     atom:    5    charge:    4.1042    magn:    0.0141    constr:    0.0000

     total cpu time spent up to now is      263.2 secs

     total energy              =   -1345.16111584 Ry
     Harris-Foulkes estimate   =   -1345.16508089 Ry
     estimated scf accuracy    <       0.00283842 Ry

     total magnetization       =     9.33 Bohr mag/cell
     absolute magnetization    =     9.67 Bohr mag/cell

     iteration # 12     ecut=   220.00 Ry     beta=0.70
     Davidson diagonalization with overlap
     ethr =  2.93E-06,  avg # of iterations =  3.1

     negative rho (up, down):  0.000E+00 1.854E-04
 
     Magnetic moment per site:
     atom:    1    charge:   12.8416    magn:    1.3124    constr:    0.0000
     atom:    2    charge:   12.8416    magn:    1.3124    constr:    0.0000
     atom:    3    charge:   12.8416    magn:    1.3124    constr:    0.0000
     atom:    4    charge:   12.7740    magn:    2.6497    constr:    0.0000
     atom:    5    charge:    4.0879    magn:   -0.0231    constr:    0.0000

     total cpu time spent up to now is      289.1 secs

     total energy              =   -1345.16148118 Ry
     Harris-Foulkes estimate   =   -1345.17033276 Ry
     estimated scf accuracy    <       0.00122012 Ry

     total magnetization       =     8.19 Bohr mag/cell
     absolute magnetization    =     8.58 Bohr mag/cell

     iteration # 13     ecut=   220.00 Ry     beta=0.70
     Davidson diagonalization with overlap
     ethr =  1.77E-06,  avg # of iterations =  3.4

     negative rho (up, down):  0.000E+00 1.809E-04
 
     Magnetic moment per site:
     atom:    1    charge:   12.8438    magn:    1.2076    constr:    0.0000
     atom:    2    charge:   12.8438    magn:    1.2076    constr:    0.0000
     atom:    3    charge:   12.8438    magn:    1.2076    constr:    0.0000
     atom:    4    charge:   12.7740    magn:    2.6455    constr:    0.0000
     atom:    5    charge:    4.0835    magn:   -0.0334    constr:    0.0000

     total cpu time spent up to now is      319.1 secs

     total energy              =   -1345.16948903 Ry
     Harris-Foulkes estimate   =   -1345.17096260 Ry
     estimated scf accuracy    <       0.00060175 Ry

     total magnetization       =     7.22 Bohr mag/cell
     absolute magnetization    =     7.59 Bohr mag/cell

     iteration # 14     ecut=   220.00 Ry     beta=0.70
     Davidson diagonalization with overlap
     ethr =  8.72E-07,  avg # of iterations =  2.6

     negative rho (up, down):  0.000E+00 1.860E-04
 
     Magnetic moment per site:
     atom:    1    charge:   12.8427    magn:    1.2805    constr:    0.0000
     atom:    2    charge:   12.8427    magn:    1.2805    constr:    0.0000
     atom:    3    charge:   12.8427    magn:    1.2805    constr:    0.0000
     atom:    4    charge:   12.7740    magn:    2.6533    constr:    0.0000
     atom:    5    charge:    4.0853    magn:   -0.0282    constr:    0.0000

     total cpu time spent up to now is      342.1 secs

     total energy              =   -1345.17047149 Ry
     Harris-Foulkes estimate   =   -1345.17016826 Ry
     estimated scf accuracy    <       0.00133798 Ry

     total magnetization       =     6.96 Bohr mag/cell
     absolute magnetization    =     7.33 Bohr mag/cell

     iteration # 15     ecut=   220.00 Ry     beta=0.70
     Davidson diagonalization with overlap
     ethr =  8.72E-07,  avg # of iterations =  2.0

     negative rho (up, down):  0.000E+00 1.876E-04
 
     Magnetic moment per site:
     atom:    1    charge:   12.8433    magn:    1.2682    constr:    0.0000
     atom:    2    charge:   12.8433    magn:    1.2682    constr:    0.0000
     atom:    3    charge:   12.8433    magn:    1.2682    constr:    0.0000
     atom:    4    charge:   12.7746    magn:    2.6617    constr:    0.0000
     atom:    5    charge:    4.0842    magn:   -0.0332    constr:    0.0000

     total cpu time spent up to now is      362.8 secs

     total energy              =   -1345.17080216 Ry
     Harris-Foulkes estimate   =   -1345.17080717 Ry
     estimated scf accuracy    <       0.00081442 Ry

     total magnetization       =     7.15 Bohr mag/cell
     absolute magnetization    =     7.51 Bohr mag/cell

     iteration # 16     ecut=   220.00 Ry     beta=0.70
     Davidson diagonalization with overlap
     ethr =  8.72E-07,  avg # of iterations =  1.0

     negative rho (up, down):  0.000E+00 2.062E-04
 
     Magnetic moment per site:
     atom:    1    charge:   12.8390    magn:    1.4943    constr:    0.0000
     atom:    2    charge:   12.8390    magn:    1.4943    constr:    0.0000
     atom:    3    charge:   12.8390    magn:    1.4943    constr:    0.0000
     atom:    4    charge:   12.7741    magn:    2.6920    constr:    0.0000
     atom:    5    charge:    4.0902    magn:   -0.0205    constr:    0.0000

     total cpu time spent up to now is      382.4 secs

     total energy              =   -1345.16808356 Ry
     Harris-Foulkes estimate   =   -1345.17082254 Ry
     estimated scf accuracy    <       0.00091016 Ry

     total magnetization       =     7.13 Bohr mag/cell
     absolute magnetization    =     7.49 Bohr mag/cell

     iteration # 17     ecut=   220.00 Ry     beta=0.70
     Davidson diagonalization with overlap
     ethr =  8.72E-07,  avg # of iterations =  3.1

     negative rho (up, down):  0.000E+00 2.043E-04
 
     Magnetic moment per site:
     atom:    1    charge:   12.8386    magn:    1.5057    constr:    0.0000
     atom:    2    charge:   12.8386    magn:    1.5057    constr:    0.0000
     atom:    3    charge:   12.8386    magn:    1.5057    constr:    0.0000
     atom:    4    charge:   12.7741    magn:    2.6876    constr:    0.0000
     atom:    5    charge:    4.0911    magn:   -0.0179    constr:    0.0000

     total cpu time spent up to now is      410.3 secs

     total energy              =   -1345.17139603 Ry
     Harris-Foulkes estimate   =   -1345.17142085 Ry
     estimated scf accuracy    <       0.00107735 Ry

     total magnetization       =     7.73 Bohr mag/cell
     absolute magnetization    =     8.08 Bohr mag/cell

     iteration # 18     ecut=   220.00 Ry     beta=0.70
     Davidson diagonalization with overlap
     ethr =  8.72E-07,  avg # of iterations =  1.0

     negative rho (up, down):  0.000E+00 1.944E-04
 
     Magnetic moment per site:
     atom:    1    charge:   12.8367    magn:    1.5423    constr:    0.0000
     atom:    2    charge:   12.8367    magn:    1.5423    constr:    0.0000
     atom:    3    charge:   12.8367    magn:    1.5423    constr:    0.0000
     atom:    4    charge:   12.7736    magn:    2.6673    constr:    0.0000
     atom:    5    charge:    4.0953    magn:   -0.0053    constr:    0.0000

     total cpu time spent up to now is      430.0 secs

     total energy              =   -1345.17125678 Ry
     Harris-Foulkes estimate   =   -1345.17140662 Ry
     estimated scf accuracy    <       0.00080533 Ry

     total magnetization       =     7.76 Bohr mag/cell
     absolute magnetization    =     8.10 Bohr mag/cell

     iteration # 19     ecut=   220.00 Ry     beta=0.70
     Davidson diagonalization with overlap
     ethr =  8.72E-07,  avg # of iterations =  2.0

     negative rho (up, down):  0.000E+00 1.936E-04
 
     Magnetic moment per site:
     atom:    1    charge:   12.8368    magn:    1.5382    constr:    0.0000
     atom:    2    charge:   12.8368    magn:    1.5382    constr:    0.0000
     atom:    3    charge:   12.8368    magn:    1.5382    constr:    0.0000
     atom:    4    charge:   12.7736    magn:    2.6676    constr:    0.0000
     atom:    5    charge:    4.0952    magn:   -0.0055    constr:    0.0000

     total cpu time spent up to now is      451.0 secs

     total energy              =   -1345.17140891 Ry
     Harris-Foulkes estimate   =   -1345.17139677 Ry
     estimated scf accuracy    <       0.00012515 Ry

     total magnetization       =     7.83 Bohr mag/cell
     absolute magnetization    =     8.17 Bohr mag/cell

     iteration # 20     ecut=   220.00 Ry     beta=0.70
     Davidson diagonalization with overlap
     ethr =  1.81E-07,  avg # of iterations =  1.0

     negative rho (up, down):  0.000E+00 1.848E-04
 
     Magnetic moment per site:
     atom:    1    charge:   12.8371    magn:    1.4836    constr:    0.0000
     atom:    2    charge:   12.8371    magn:    1.4836    constr:    0.0000
     atom:    3    charge:   12.8371    magn:    1.4836    constr:    0.0000
     atom:    4    charge:   12.7733    magn:    2.6519    constr:    0.0000
     atom:    5    charge:    4.0948    magn:   -0.0033    constr:    0.0000

     total cpu time spent up to now is      470.6 secs

     total energy              =   -1345.17127662 Ry
     Harris-Foulkes estimate   =   -1345.17141157 Ry
     estimated scf accuracy    <       0.00012450 Ry

     total magnetization       =     7.82 Bohr mag/cell
     absolute magnetization    =     8.16 Bohr mag/cell

     iteration # 21     ecut=   220.00 Ry     beta=0.70
     Davidson diagonalization with overlap
     ethr =  1.80E-07,  avg # of iterations =  2.9

     negative rho (up, down):  0.000E+00 1.853E-04
 
     Magnetic moment per site:
     atom:    1    charge:   12.8372    magn:    1.4844    constr:    0.0000
     atom:    2    charge:   12.8372    magn:    1.4844    constr:    0.0000
     atom:    3    charge:   12.8372    magn:    1.4844    constr:    0.0000
     atom:    4    charge:   12.7733    magn:    2.6527    constr:    0.0000
     atom:    5    charge:    4.0947    magn:   -0.0037    constr:    0.0000

     total cpu time spent up to now is      494.8 secs

     total energy              =   -1345.17149113 Ry
     Harris-Foulkes estimate   =   -1345.17149045 Ry
     estimated scf accuracy    <       0.00000691 Ry

     total magnetization       =     7.67 Bohr mag/cell
     absolute magnetization    =     8.02 Bohr mag/cell

     iteration # 22     ecut=   220.00 Ry     beta=0.70
     Davidson diagonalization with overlap
     ethr =  1.00E-08,  avg # of iterations =  2.0

     negative rho (up, down):  0.000E+00 1.866E-04
 
     Magnetic moment per site:
     atom:    1    charge:   12.8376    magn:    1.4857    constr:    0.0000
     atom:    2    charge:   12.8376    magn:    1.4857    constr:    0.0000
     atom:    3    charge:   12.8376    magn:    1.4857    constr:    0.0000
     atom:    4    charge:   12.7736    magn:    2.6549    constr:    0.0000
     atom:    5    charge:    4.0945    magn:   -0.0047    constr:    0.0000

     total cpu time spent up to now is      515.4 secs

     total energy              =   -1345.17149080 Ry
     Harris-Foulkes estimate   =   -1345.17149154 Ry
     estimated scf accuracy    <       0.00000424 Ry

     total magnetization       =     7.67 Bohr mag/cell
     absolute magnetization    =     8.02 Bohr mag/cell

     iteration # 23     ecut=   220.00 Ry     beta=0.70
     Davidson diagonalization with overlap
     ethr =  6.14E-09,  avg # of iterations =  2.4

     negative rho (up, down):  0.000E+00 1.861E-04
 
     Magnetic moment per site:
     atom:    1    charge:   12.8375    magn:    1.4876    constr:    0.0000
     atom:    2    charge:   12.8375    magn:    1.4876    constr:    0.0000
     atom:    3    charge:   12.8375    magn:    1.4876    constr:    0.0000
     atom:    4    charge:   12.7736    magn:    2.6537    constr:    0.0000
     atom:    5    charge:    4.0947    magn:   -0.0038    constr:    0.0000

     total cpu time spent up to now is      537.3 secs

     total energy              =   -1345.17149207 Ry
     Harris-Foulkes estimate   =   -1345.17149248 Ry
     estimated scf accuracy    <       0.00000233 Ry

     total magnetization       =     7.68 Bohr mag/cell
     absolute magnetization    =     8.03 Bohr mag/cell

     iteration # 24     ecut=   220.00 Ry     beta=0.70
     Davidson diagonalization with overlap
     ethr =  3.38E-09,  avg # of iterations =  1.8

     negative rho (up, down):  0.000E+00 1.861E-04
 
     Magnetic moment per site:
     atom:    1    charge:   12.8375    magn:    1.4874    constr:    0.0000
     atom:    2    charge:   12.8375    magn:    1.4874    constr:    0.0000
     atom:    3    charge:   12.8375    magn:    1.4874    constr:    0.0000
     atom:    4    charge:   12.7735    magn:    2.6539    constr:    0.0000
     atom:    5    charge:    4.0947    magn:   -0.0038    constr:    0.0000

     total cpu time spent up to now is      557.2 secs

     total energy              =   -1345.17149252 Ry
     Harris-Foulkes estimate   =   -1345.17149254 Ry
     estimated scf accuracy    <       0.00000005 Ry

     total magnetization       =     7.68 Bohr mag/cell
     absolute magnetization    =     8.03 Bohr mag/cell

     iteration # 25     ecut=   220.00 Ry     beta=0.70
     Davidson diagonalization with overlap
     ethr =  7.27E-11,  avg # of iterations =  2.9

     negative rho (up, down):  0.000E+00 1.860E-04
 
     Magnetic moment per site:
     atom:    1    charge:   12.8375    magn:    1.4880    constr:    0.0000
     atom:    2    charge:   12.8375    magn:    1.4880    constr:    0.0000
     atom:    3    charge:   12.8375    magn:    1.4880    constr:    0.0000
     atom:    4    charge:   12.7735    magn:    2.6537    constr:    0.0000
     atom:    5    charge:    4.0947    magn:   -0.0036    constr:    0.0000

     total cpu time spent up to now is      584.7 secs

     total energy              =   -1345.17149251 Ry
     Harris-Foulkes estimate   =   -1345.17149255 Ry
     estimated scf accuracy    <       0.00000015 Ry

     total magnetization       =     7.68 Bohr mag/cell
     absolute magnetization    =     8.03 Bohr mag/cell

     iteration # 26     ecut=   220.00 Ry     beta=0.70
     Davidson diagonalization with overlap
     ethr =  7.27E-11,  avg # of iterations =  2.5

     negative rho (up, down):  0.000E+00 1.860E-04
 
     Magnetic moment per site:
     atom:    1    charge:   12.8374    magn:    1.4880    constr:    0.0000
     atom:    2    charge:   12.8374    magn:    1.4880    constr:    0.0000
     atom:    3    charge:   12.8374    magn:    1.4880    constr:    0.0000
     atom:    4    charge:   12.7736    magn:    2.6537    constr:    0.0000
     atom:    5    charge:    4.0947    magn:   -0.0036    constr:    0.0000

     total cpu time spent up to now is      609.5 secs

     End of self-consistent calculation

 ------ SPIN UP ------------


          k = 0.0000 0.0000 0.0000 ( 18349 PWs)   bands (ev):

   -69.9378 -69.2607 -69.2063 -69.2063 -35.9988 -35.9988 -35.9988 -35.6168
   -35.6168 -35.6168 -35.1596 -35.1596 -35.1596 -35.1530 -35.1530 -35.1530
     0.3456  11.4280  13.3304  13.3304  13.3304  13.8393  13.8393  14.1046
    14.1046  14.1046  16.0919  16.0919  16.0919  17.1979  17.1979  17.8457
    17.8457  18.3977  18.3977  18.3977  18.4655  18.4655  18.4655  18.4669
    21.8870  23.7553

          k = 0.0000 0.0000 0.1111 ( 18489 PWs)   bands (ev):

   -69.9377 -69.2593 -69.2078 -69.2063 -35.9978 -35.9978 -35.9974 -35.6156
   -35.6156 -35.6146 -35.1606 -35.1606 -35.1599 -35.1578 -35.1542 -35.1542
     0.4153  11.4853  12.9272  13.1104  13.1104  13.9187  13.9303  14.1569
    14.3438  14.3438  16.0273  16.1459  16.1459  17.2210  17.2568  17.8142
    17.8698  18.3135  18.3135  18.3976  18.3976  18.3978  18.4058  18.4644
    21.9631  23.2362

          k = 0.0000 0.0000 0.2222 ( 18461 PWs)   bands (ev):

   -69.9375 -69.2553 -69.2119 -69.2063 -35.9953 -35.9953 -35.9939 -35.6126
   -35.6126 -35.6086 -35.1704 -35.1635 -35.1635 -35.1607 -35.1570 -35.1570
     0.6003  11.3377  12.5042  12.7672  12.7672  14.0809  14.1351  14.3086
    14.7506  14.7506  15.8445  16.2719  16.2719  17.1939  17.2853  17.7240
    17.7684  17.9539  17.9539  18.2388  18.3982  18.4010  18.4010  18.4617
    22.1771  22.5168

          k = 0.0000 0.0000 0.3333 ( 18441 PWs)   bands (ev):

   -69.9372 -69.2497 -69.2179 -69.2062 -35.9924 -35.9924 -35.9900 -35.6091
   -35.6091 -35.6011 -35.1854 -35.1672 -35.1672 -35.1615 -35.1599 -35.1599
     0.8281  10.6696  12.4972  12.4972  12.8458  14.1973  14.4171  14.5419
    15.1423  15.1423  15.5758  16.3644  16.3644  16.9834  17.3210  17.3611
    17.5811  17.5811  17.6122  18.0166  18.3986  18.4141  18.4141  18.4588
    22.0438  22.5713

          k = 0.0000 0.0000 0.4444 ( 18432 PWs)   bands (ev):

   -69.9370 -69.2443 -69.2234 -69.2062 -35.9905 -35.9905 -35.9875 -35.6068
   -35.6068 -35.5958 -35.1955 -35.1698 -35.1698 -35.1620 -35.1616 -35.1616
     0.9889  10.1828  12.3530  12.3530  13.4005  14.1245  14.6314  14.8074
    15.2871  15.4344  15.4344  16.3333  16.3333  16.7318  16.9434  17.3457
    17.3739  17.3739  17.6396  17.8040  18.3989  18.4294  18.4294  18.4572
    21.9105  22.7891

          k = 0.0000 0.1111 0.1111 ( 18451 PWs)   bands (ev):

   -69.9376 -69.2579 -69.2085 -69.2070 -35.9981 -35.9968 -35.9951 -35.6268
   -35.6144 -35.6003 -35.1710 -35.1616 -35.1612 -35.1579 -35.1555 -35.1491
     0.4850  11.5392  12.6986  12.8568  12.9537  13.9959  14.0036  14.2121
    14.4867  14.5133  16.0036  16.1625  16.1923  17.2484  17.2724  17.7256
    17.7829  18.2258  18.2636  18.3175  18.3238  18.4098  18.4785  18.5420
    22.0237  23.4380

          k = 0.0000 0.1111 0.2222 ( 18464 PWs)   bands (ev):

   -69.9374 -69.2541 -69.2122 -69.2073 -35.9966 -35.9944 -35.9918 -35.6343
   -35.6112 -35.5843 -35.1863 -35.1661 -35.1643 -35.1591 -35.1585 -35.1448
     0.6703  11.3589  12.2604  12.6629  12.6763  14.1569  14.2065  14.3621
    14.8141  14.8586  15.8414  16.2810  16.2886  17.1594  17.3230  17.4377
    17.5840  17.9111  18.1395  18.1979  18.2414  18.3835  18.5578  18.6818
    22.2024  22.6700

          k = 0.0000 0.1111 0.3333 ( 18461 PWs)   bands (ev):

   -69.9371 -69.2485 -69.2180 -69.2073 -35.9938 -35.9916 -35.9892 -35.6380
   -35.6076 -35.5703 -35.2015 -35.1712 -35.1679 -35.1615 -35.1610 -35.1426
     0.8987  10.6614  12.1384  12.4160  12.9457  14.2824  14.4857  14.5910
    15.1748  15.2143  15.5801  16.2915  16.3932  16.9291  17.0973  17.2654
    17.4900  17.5572  17.8560  18.0730  18.1791  18.3771  18.6295  18.6755
    22.2614  22.4501

          k = 0.0000 0.1111 0.4444 ( 18448 PWs)   bands (ev):

   -69.9369 -69.2432 -69.2235 -69.2073 -35.9913 -35.9898 -35.9882 -35.6393
   -35.6051 -35.5619 -35.2113 -35.1744 -35.1706 -35.1633 -35.1625 -35.1417
     1.0600  10.1713  12.0376  12.2805  13.4691  14.2191  14.7008  14.8572
    15.2904  15.4584  15.4811  16.1375  16.3911  16.6628  16.8635  17.2552
    17.3551  17.4652  17.7075  17.8991  18.1429  18.3750  18.6535  18.6754
    22.1427  22.6120

          k = 0.0000 0.2222 0.2222 ( 18457 PWs)   bands (ev):

   -69.9372 -69.2504 -69.2139 -69.2094 -35.9968 -35.9922 -35.9897 -35.6529
   -35.6077 -35.5589 -35.2076 -35.1687 -35.1667 -35.1621 -35.1608 -35.1312
     0.8566  11.2947  11.5675  12.4407  12.7894  14.3574  14.3834  14.5047
    15.0140  15.1100  15.7595  16.2747  16.3626  17.0222  17.0274  17.3102
    17.4582  17.7423  18.0339  18.0880  18.2575  18.3347  18.7081  18.9939
    22.1158  22.9983

          k = 0.0000 0.2222 0.3333 ( 18424 PWs)   bands (ev):

   -69.9369 -69.2451 -69.2185 -69.2103 -35.9954 -35.9896 -35.9890 -35.6653
   -35.6036 -35.5382 -35.2257 -35.1716 -35.1699 -35.1656 -35.1631 -35.1222
     1.0865  10.6284  11.3677  12.2331  13.1801  14.5161  14.6610  14.7160
    15.2785  15.3902  15.5578  16.0661  16.4957  16.7574  16.8081  17.1019
    17.4753  17.6354  17.8025  17.9574  18.1965  18.3518  18.8355  19.0289
    21.9454  22.8233

          k = 0.0000 0.2222 0.4444 ( 18428 PWs)   bands (ev):

   -69.9368 -69.2400 -69.2235 -69.2105 -35.9931 -35.9901 -35.9879 -35.6713
   -35.6009 -35.5264 -35.2361 -35.1735 -35.1725 -35.1676 -35.1646 -35.1177
     1.2492  10.1368  11.3031  12.1145  13.6797  14.4690  14.8907  14.9676
    15.2992  15.4954  15.5992  15.8224  16.5515  16.5534  16.6109  17.0964
    17.2976  17.5283  17.8744  17.8795  18.1774  18.2112  18.9122  18.9627
    21.9125  22.7455

          k = 0.0000 0.3333 0.3333 ( 18469 PWs)   bands (ev):

   -69.9367 -69.2402 -69.2201 -69.2137 -35.9959 -35.9903 -35.9873 -35.6847
   -35.5990 -35.5128 -35.2452 -35.1724 -35.1715 -35.1702 -35.1656 -35.1074
     1.3190  10.5582  10.5958  12.0537  13.5741  14.8382  14.8433  14.8880
    15.4137  15.4601  15.5947  15.7405  16.5547  16.6478  16.6576  16.8986
    17.3280  17.6088  17.7578  17.9051  18.0434  18.5476  19.0040  19.1741
    21.2659  23.3554

          k = 0.0000 0.3333 0.4444 ( 18425 PWs)   bands (ev):

   -69.9366 -69.2351 -69.2237 -69.2153 -35.9948 -35.9925 -35.9858 -35.6947
   -35.5960 -35.4988 -35.2561 -35.1746 -35.1726 -35.1715 -35.1674 -35.0997
     1.4839  10.0899  10.5351  11.9483  14.0223  14.7991  15.0848  15.1282
    15.2952  15.5097  15.5582  15.7462  16.4013  16.4737  16.7777  16.8316
    17.2030  17.3994  17.6204  17.9738  18.1736  18.5807  19.1027  19.1295
    20.9077  23.4486

          k = 0.0000 0.4444 0.4444 ( 18464 PWs)   bands (ev):

   -69.9365 -69.2296 -69.2242 -69.2204 -35.9954 -35.9946 -35.9845 -35.7071
   -35.5927 -35.4836 -35.2671 -35.1761 -35.1758 -35.1702 -35.1693 -35.0901
     1.6509  10.0557  10.0562  11.8496  14.3680  15.0247  15.1858  15.2538
    15.2589  15.4089  15.5744  15.8588  16.3135  16.3953  16.5769  16.9868
    17.1136  17.2344  17.4092  17.8574  18.3838  18.9440  19.1747  19.2128
    20.1302  23.9981

          k = 0.1111 0.1111 0.1111 ( 18439 PWs)   bands (ev):

   -69.9375 -69.2566 -69.2084 -69.2084 -35.9974 -35.9974 -35.9928 -35.6389
   -35.5991 -35.5991 -35.1740 -35.1702 -35.1702 -35.1512 -35.1494 -35.1494
     0.5549  11.5893  12.5637  12.5637  12.8354  14.0717  14.0717  14.3894
    14.3894  14.7339  15.9883  16.2020  16.2020  17.2665  17.2665  17.6640
    17.6640  17.9909  18.1228  18.3439  18.3439  18.4193  18.6405  18.6405
    22.0739  23.5625

          k = 0.1111 0.1111 0.2222 ( 18453 PWs)   bands (ev):

   -69.9373 -69.2528 -69.2124 -69.2084 -35.9964 -35.9956 -35.9897 -35.6511
   -35.5962 -35.5787 -35.1906 -35.1806 -35.1720 -35.1515 -35.1465 -35.1442
     0.7405  11.3710  12.1431  12.2978  12.7587  14.2323  14.2774  14.4623
    14.7619  15.0130  15.8440  16.2845  16.2950  17.1759  17.2937  17.3837
    17.4077  17.7633  17.9265  18.2172  18.3450  18.3558  18.8016  18.8324
    22.2205  22.8347

          k = 0.1111 0.1111 0.3333 ( 18433 PWs)   bands (ev):

   -69.9370 -69.2474 -69.2181 -69.2084 -35.9936 -35.9936 -35.9877 -35.6586
   -35.5929 -35.5613 -35.2068 -35.1893 -35.1730 -35.1532 -35.1472 -35.1401
     0.9695  10.6461  12.0639  12.0768  13.0381  14.3636  14.5546  14.6646
    15.1708  15.2801  15.5906  16.2779  16.3442  16.9167  17.0705  17.1113
    17.4307  17.6061  17.7037  18.0893  18.2497  18.3338  18.6807  18.9921
    22.4186  22.4432

          k = 0.1111 0.1111 0.4444 ( 18446 PWs)   bands (ev):

   -69.9369 -69.2421 -69.2235 -69.2084 -35.9922 -35.9903 -35.9879 -35.6619
   -35.5906 -35.5511 -35.2168 -35.1943 -35.1736 -35.1544 -35.1487 -35.1381
     1.1313  10.1542  11.9340  12.0076  13.5363  14.3071  14.7708  14.9228
    15.3008  15.4546  15.5302  16.0756  16.2780  16.6258  16.9671  17.0967
    17.3337  17.4988  17.7088  17.9298  18.1839  18.3235  18.5235  19.0836
    22.3366  22.5620

          k = 0.1111 0.2222 0.2222 ( 18449 PWs)   bands (ev):

   -69.9371 -69.2493 -69.2139 -69.2106 -35.9968 -35.9947 -35.9873 -35.6713
   -35.5871 -35.5579 -35.2087 -35.1857 -35.1822 -35.1471 -35.1462 -35.1315
     0.9273  11.2970  11.4890  12.0698  12.8954  14.4279  14.4564  14.6309
    14.9388  15.2085  15.7700  16.2695  16.3399  17.0314  17.0914  17.2140
    17.3954  17.5440  17.7217  18.2477  18.2494  18.3212  19.0773  19.1101
    22.1893  23.1063

          k = 0.1111 0.2222 0.3333 ( 18446 PWs)   bands (ev):

   -69.9369 -69.2442 -69.2185 -69.2112 -35.9958 -35.9932 -35.9866 -35.6855
   -35.5826 -35.5366 -35.2260 -35.1943 -35.1843 -35.1480 -35.1448 -35.1222
     1.1581  10.5980  11.3112  11.9147  13.2655  14.5773  14.7279  14.8333
    15.2635  15.3762  15.5835  16.1021  16.3718  16.7649  16.9122  17.0312
    17.4417  17.4778  17.6142  18.1516  18.1972  18.2541  18.9963  19.3334
    22.0567  22.8859

          k = 0.1111 0.2222 0.4444 ( 18434 PWs)   bands (ev):

   -69.9367 -69.2391 -69.2236 -69.2114 -35.9941 -35.9920 -35.9875 -35.6926
   -35.5800 -35.5241 -35.2360 -35.1999 -35.1848 -35.1488 -35.1448 -35.1177
     1.3216  10.1072  11.2411  11.8216  13.7356  14.5290  14.9594  15.0708
    15.3031  15.4783  15.6035  15.8647  16.2987  16.5432  16.8767  16.9672
    17.3020  17.4478  17.7960  18.0498  18.1005  18.2330  18.7425  19.4750
    22.0150  22.8355

          k = 0.1111 0.3333 0.3333 ( 18447 PWs)   bands (ev):

   -69.9367 -69.2394 -69.2201 -69.2145 -35.9966 -35.9932 -35.9867 -35.7056
   -35.5771 -35.5124 -35.2442 -35.1958 -35.1930 -35.1462 -35.1448 -35.1075
     1.3918  10.5242  10.5391  11.7567  13.6359  14.8223  14.9037  15.0685
    15.3295  15.4718  15.5693  15.9046  16.3663  16.6358  16.7524  16.9582
    17.3275  17.3348  17.7950  18.0109  18.1084  18.3392  19.2231  19.4677
    21.3615  23.2562

          k = 0.1111 0.3333 0.4444 ( 18443 PWs)   bands (ev):

   -69.9366 -69.2345 -69.2237 -69.2159 -35.9959 -35.9941 -35.9870 -35.7162
   -35.5741 -35.4983 -35.2544 -35.2001 -35.1942 -35.1460 -35.1447 -35.0997
     1.5578  10.0487  10.4832  11.6622  14.0408  14.7948  15.0909  15.2861
    15.2942  15.5092  15.5621  15.9171  16.2893  16.4459  16.7279  16.9206
    17.2024  17.3105  17.8562  17.9762  18.0300  18.4885  19.0166  19.6590
    20.9537  23.3823

          k = 0.1111 0.4444 0.4444 ( 18443 PWs)   bands (ev):

   -69.9365 -69.2293 -69.2242 -69.2207 -35.9966 -35.9959 -35.9868 -35.7288
   -35.5709 -35.4835 -35.2647 -35.2000 -35.1996 -35.1450 -35.1447 -35.0901
     1.7261  10.0073  10.0093  11.5674  14.3230  14.9815  15.0451  15.2044
    15.5459  15.5517  15.6297  16.0532  16.2555  16.3614  16.5044  16.9233
    17.1738  17.2213  17.6741  17.9340  18.0852  18.8775  19.1700  19.6999
    20.1194  23.7362

          k = 0.2222 0.2222 0.2222 ( 18445 PWs)   bands (ev):

   -69.9369 -69.2461 -69.2139 -69.2139 -35.9967 -35.9967 -35.9856 -35.6969
   -35.5556 -35.5556 -35.2162 -35.1989 -35.1989 -35.1340 -35.1340 -35.1299
     1.1157  11.2708  11.3111  11.3111  13.1131  14.6221  14.6221  14.9417
    14.9417  15.3038  15.7315  16.2791  16.2791  16.9689  16.9689  17.2820
    17.2820  17.2920  17.4266  18.2281  18.2281  18.3812  19.4143  19.4143
    22.2833  23.0620

          k = 0.2222 0.2222 0.3333 ( 18441 PWs)   bands (ev):

   -69.9368 -69.2414 -69.2187 -69.2138 -35.9967 -35.9966 -35.9862 -35.7161
   -35.5529 -35.5296 -35.2302 -35.2118 -35.2015 -35.1339 -35.1262 -35.1204
     1.3491  10.5167  11.1352  11.2354  13.4786  14.7336  14.8917  15.1004
    15.2916  15.2953  15.6687  16.1476  16.2337  16.7239  16.7858  17.1813
    17.1841  17.3770  17.5202  18.1612  18.2194  18.3158  19.2414  19.7637
    22.2485  22.6935

          k = 0.2222 0.2222 0.4444 ( 18436 PWs)   bands (ev):

   -69.9366 -69.2366 -69.2236 -69.2138 -35.9966 -35.9949 -35.9883 -35.7260
   -35.5511 -35.5150 -35.2392 -35.2189 -35.2018 -35.1345 -35.1228 -35.1150
     1.5149  10.0324  11.0316  11.1935  13.8845  14.6644  15.1472  15.1478
    15.4028  15.4924  15.6114  15.9863  16.1832  16.4972  16.7709  17.0059
    17.1465  17.5597  17.7228  18.0962  18.1960  18.2419  18.8104  20.0141
    22.2600  22.3754

          k = 0.2222 0.3333 0.3333 ( 18438 PWs)   bands (ev):

   -69.9366 -69.2372 -69.2201 -69.2167 -35.9984 -35.9976 -35.9881 -35.7399
   -35.5404 -35.5112 -35.2421 -35.2170 -35.2136 -35.1251 -35.1237 -35.1076
     1.5865  10.4046  10.4370  11.0620  13.7831  14.8925  14.9970  15.1534
    15.4036  15.4570  15.8013  16.1021  16.2128  16.6134  16.6339  16.9612
    17.3035  17.3487  17.6457  18.1525  18.2319  18.2816  19.4022  19.9180
    21.6311  22.6890

          k = 0.2222 0.3333 0.4444 ( 18421 PWs)   bands (ev):

   -69.9365 -69.2328 -69.2237 -69.2175 -35.9988 -35.9977 -35.9906 -35.7526
   -35.5371 -35.4969 -35.2505 -35.2229 -35.2150 -35.1247 -35.1197 -35.0997
     1.7558   9.9477  10.3577  10.9826  14.0721  14.8046  15.0270  15.2235
    15.4899  15.7146  15.8749  16.1614  16.1872  16.4230  16.6198  16.8031
    17.2856  17.5118  17.7751  18.1058  18.1691  18.3877  19.0262  20.2479
    21.0537  22.6438

          k = 0.2222 0.4444 0.4444 ( 18424 PWs)   bands (ev):

   -69.9365 -69.2285 -69.2241 -69.2215 -35.9996 -35.9993 -35.9927 -35.7670
   -35.5326 -35.4833 -35.2588 -35.2226 -35.2220 -35.1198 -35.1196 -35.0901
     1.9280   9.8897   9.8970  10.8923  14.2093  14.8977  14.9495  15.0889
    15.6721  16.0013  16.1135  16.2017  16.2629  16.3986  16.5117  16.6589
    17.4065  17.4413  17.8211  17.9824  18.1008  18.7641  19.1466  19.9405
    20.4393  22.9019

          k = 0.3333 0.3333 0.3333 ( 18409 PWs)   bands (ev):

   -69.9365 -69.2339 -69.2200 -69.2200 -36.0005 -36.0005 -35.9917 -35.7676
   -35.5098 -35.5098 -35.2432 -35.2289 -35.2289 -35.1100 -35.1100 -35.1056
     1.8295  10.2646  10.2646  10.4018  13.9568  14.9417  14.9943  14.9943
    15.6692  15.6692  16.1351  16.2174  16.2174  16.5749  16.5749  16.7361
    17.4731  17.5582  17.5582  18.2035  18.2035  18.3417  19.7534  19.7534
    21.9449  21.9449

          k = 0.3333 0.3333 0.4444 ( 18410 PWs)   bands (ev):

   -69.9365 -69.2302 -69.2237 -69.2200 -36.0018 -36.0010 -35.9954 -35.7826
   -35.5088 -35.4928 -35.2482 -35.2370 -35.2302 -35.1089 -35.1023 -35.0984
     2.0036   9.8386  10.1794  10.3014  14.0865  14.8128  14.9321  15.0657
    15.7096  15.9684  16.2178  16.2965  16.3758  16.5443  16.5844  16.7063
    17.4816  17.6852  17.7209  18.2219  18.2873  18.3191  19.0860  20.2689
    21.0590  21.9459

          k = 0.3333 0.4444 0.4444 ( 18408 PWs)   bands (ev):

   -69.9364 -69.2272 -69.2241 -69.2226 -36.0031 -36.0031 -35.9993 -35.7990
   -35.5006 -35.4831 -35.2522 -35.2388 -35.2381 -35.1007 -35.1004 -35.0901
     2.1819   9.7650   9.7772  10.1655  14.0868  14.8234  14.8777  14.9431
    15.8646  16.0630  16.2505  16.2624  16.4459  16.8096  16.8155  16.9887
    17.6307  17.6602  17.7492  18.2073  18.2598  18.5483  19.0736  19.6181
    20.9365  21.9305

          k = 0.4444 0.4444 0.4444 ( 18367 PWs)   bands (ev):

   -69.9364 -69.2258 -69.2241 -69.2241 -36.0053 -36.0053 -36.0039 -35.8167
   -35.4829 -35.4829 -35.2486 -35.2464 -35.2464 -35.0904 -35.0904 -35.0897
     2.3653   9.6880   9.6880   9.7163  14.0119  14.7927  14.8331  14.8331
    16.0114  16.0114  16.2624  16.2624  16.3288  17.4462  17.4462  17.4745
    17.7438  17.7438  17.9038  18.3141  18.3141  18.3168  18.9393  18.9393
    21.2438  21.2438

 ------ SPIN DOWN ----------


          k = 0.0000 0.0000 0.0000 ( 18349 PWs)   bands (ev):

   -67.3634 -67.3026 -67.3026 -66.5342 -33.9864 -33.9864 -33.9864 -33.2306
   -33.2306 -33.2306 -33.1918 -33.1918 -33.1918 -32.6396 -32.6396 -32.6396
     0.4465  11.7276  13.3949  13.3949  13.3949  15.2107  15.2107  15.5337
    15.5337  15.5337  18.0412  18.0412  18.0412  18.7049  18.7049  20.2821
    20.2821  20.2821  20.4082  20.4082  20.5094  20.8707  20.8707  20.8707
    23.0637  23.9612

          k = 0.0000 0.0000 0.1111 ( 18489 PWs)   bands (ev):

   -67.3617 -67.3042 -67.3026 -66.5342 -33.9852 -33.9852 -33.9847 -33.2309
   -33.2295 -33.2295 -33.1930 -33.1930 -33.1922 -32.6425 -32.6408 -32.6408
     0.5154  11.7585  13.0944  13.2814  13.2814  15.2705  15.3099  15.5909
    15.6868  15.6868  17.9635  18.1036  18.1036  18.7113  18.8016  20.2363
    20.2363  20.2822  20.3477  20.3646  20.4466  20.6202  20.6202  20.8707
    23.1050  23.6077

          k = 0.0000 0.0000 0.2222 ( 18461 PWs)   bands (ev):

   -67.3570 -67.3087 -67.3026 -66.5345 -33.9821 -33.9821 -33.9803 -33.2319
   -33.2270 -33.2270 -33.1958 -33.1958 -33.1931 -32.6498 -32.6439 -32.6439
     0.6982  11.5210  12.8547  13.0421  13.0421  15.3356  15.5856  15.7546
    16.0361  16.0361  17.7480  18.2773  18.2773  18.7207  18.8140  19.9888
    19.9888  20.1244  20.1429  20.2203  20.2203  20.2827  20.3767  20.8708
    23.0982  23.2967

          k = 0.0000 0.0000 0.3333 ( 18441 PWs)   bands (ev):

   -67.3501 -67.3153 -67.3026 -66.5347 -33.9785 -33.9785 -33.9752 -33.2330
   -33.2241 -33.2241 -33.1989 -33.1989 -33.1941 -32.6583 -32.6474 -32.6474
     0.9226  10.8626  12.8211  12.8211  13.2717  15.2192  15.9595  15.9957
    16.4089  16.4089  17.4487  18.5182  18.5182  18.5894  18.7028  19.4684
    19.4684  19.7688  19.8264  20.0530  20.0530  20.2832  20.3216  20.8711
    22.9356  23.5441

          k = 0.0000 0.0000 0.4444 ( 18432 PWs)   bands (ev):

   -67.3436 -67.3217 -67.3025 -66.5348 -33.9761 -33.9761 -33.9718 -33.2337
   -33.2223 -33.2223 -33.2009 -33.2009 -33.1947 -32.6638 -32.6497 -32.6497
     1.0805  10.3966  12.6957  12.6957  13.9346  14.7947  16.2273  16.2615
    16.6610  16.6610  17.1794  18.4156  18.6443  18.7636  18.7636  19.0531
    19.0531  19.4979  19.6039  19.9438  19.9438  20.2836  20.2855  20.8712
    22.9017  23.7480

          k = 0.0000 0.1111 0.1111 ( 18451 PWs)   bands (ev):

   -67.3601 -67.3049 -67.3034 -66.5343 -33.9979 -33.9840 -33.9692 -33.2350
   -33.2285 -33.2276 -33.1976 -33.1941 -33.1866 -32.6463 -32.6420 -32.6404
     0.5844  11.7908  12.8623  13.1407  13.1803  15.3466  15.3811  15.6568
    15.8148  15.8156  17.9272  18.1263  18.1579  18.7524  18.7970  20.1520
    20.1889  20.2135  20.2576  20.3573  20.4305  20.5234  20.5312  20.7749
    23.1399  23.8584

          k = 0.0000 0.1111 0.2222 ( 18464 PWs)   bands (ev):

   -67.3555 -67.3090 -67.3037 -66.5345 -34.0072 -33.9809 -33.9531 -33.2421
   -33.2259 -33.2254 -33.2009 -33.1969 -33.1814 -32.6526 -32.6451 -32.6426
     0.7673  11.5462  12.5128  12.9612  13.0785  15.4217  15.6385  15.8237
    16.1194  16.1288  17.7349  18.2828  18.2972  18.6949  18.7301  19.8200
    19.9571  19.9616  20.0879  20.2027  20.3615  20.3782  20.4820  20.7403
    23.2073  23.4014

          k = 0.0000 0.1111 0.3333 ( 18461 PWs)   bands (ev):

   -67.3488 -67.3154 -67.3037 -66.5347 -34.0129 -33.9773 -33.9395 -33.2492
   -33.2230 -33.2229 -33.2031 -33.2000 -33.1781 -32.6586 -32.6487 -32.6464
     0.9920  10.8684  12.4342  12.7538  13.4032  15.3132  16.0057  16.0656
    16.4579  16.4685  17.4442  18.3444  18.4939  18.5277  18.6585  19.4837
    19.5001  19.7221  19.8939  19.9378  20.2482  20.3633  20.3846  20.7410
    23.1204  23.4633

          k = 0.0000 0.1111 0.4444 ( 18448 PWs)   bands (ev):

   -67.3423 -67.3216 -67.3037 -66.5349 -34.0154 -33.9750 -33.9317 -33.2535
   -33.2212 -33.2210 -33.2044 -33.2020 -33.1767 -32.6620 -32.6510 -32.6493
     1.1502  10.3980  12.3632  12.6345  14.0097  14.9058  16.3026  16.3043
    16.6883  16.7032  17.1802  18.1821  18.3308  18.7857  18.7916  19.0851
    19.3045  19.5824  19.6173  19.8232  20.1434  20.3061  20.3650  20.7426
    23.1033  23.5995

          k = 0.0000 0.2222 0.2222 ( 18457 PWs)   bands (ev):

   -67.3512 -67.3108 -67.3060 -66.5347 -34.0286 -33.9779 -33.9265 -33.2582
   -33.2256 -33.2230 -33.2046 -33.1997 -33.1670 -32.6565 -32.6483 -32.6425
     0.9507  11.4993  11.8225  12.7780  13.2517  15.6151  15.7741  15.9975
    16.3299  16.3639  17.6311  18.2674  18.3696  18.5064  18.5789  19.6837
    19.7681  19.8181  19.9193  20.0934  20.4438  20.4479  20.5156  20.6851
    23.1193  23.9534

          k = 0.0000 0.2222 0.3333 ( 18424 PWs)   bands (ev):

   -67.3450 -67.3158 -67.3069 -66.5349 -34.0436 -33.9745 -33.9054 -33.2719
   -33.2254 -33.2198 -33.2089 -33.2029 -33.1558 -32.6582 -32.6520 -32.6450
     1.1765  10.8720  11.6513  12.5971  13.6635  15.5698  16.0779  16.2383
    16.5925  16.6218  17.4053  17.9796  18.2660  18.5839  18.5889  19.5184
    19.5368  19.7119  19.7455  19.8916  20.4108  20.4112  20.4841  20.6815
    23.0117  23.7346

          k = 0.0000 0.2222 0.4444 ( 18428 PWs)   bands (ev):

   -67.3389 -67.3215 -67.3071 -66.5350 -34.0513 -33.9722 -33.8937 -33.2795
   -33.2242 -33.2177 -33.2127 -33.2049 -33.1499 -32.6576 -32.6544 -32.6482
     1.3357  10.3962  11.6143  12.4905  14.2182  15.2001  16.3418  16.4885
    16.7635  16.8472  17.1758  17.7080  18.1344  18.6119  18.8661  19.1780
    19.3755  19.6221  19.6728  19.8138  20.3955  20.4158  20.4757  20.5146
    23.0490  23.6574

          k = 0.0000 0.3333 0.3333 ( 18469 PWs)   bands (ev):

   -67.3394 -67.3174 -67.3106 -66.5350 -34.0660 -33.9712 -33.8792 -33.2898
   -33.2277 -33.2162 -33.2160 -33.2061 -33.1381 -32.6559 -32.6558 -32.6452
     1.4040  10.8321  10.8971  12.4377  14.0754  15.8683  16.0260  16.4609
    16.7898  16.7992  17.2931  17.6316  18.0637  18.5080  18.7330  19.3589
    19.5306  19.5350  19.7314  19.9250  20.1460  20.5075  20.5140  20.8578
    22.5357  24.3136

          k = 0.0000 0.3333 0.4444 ( 18425 PWs)   bands (ev):

   -67.3336 -67.3214 -67.3123 -66.5351 -34.0777 -33.9690 -33.8648 -33.2995
   -33.2280 -33.2221 -33.2140 -33.2081 -33.1285 -32.6583 -32.6525 -32.6473
     1.5649  10.3854  10.8479  12.3422  14.5568  15.6033  16.2204  16.6898
    16.8596  17.0666  17.1527  17.3660  17.9800  18.4026  18.9746  19.2076
    19.2667  19.5030  19.5850  20.0348  20.0961  20.5261  20.5915  20.7765
    22.3311  24.3169

          k = 0.0000 0.4444 0.4444 ( 18464 PWs)   bands (ev):

   -67.3276 -67.3218 -67.3178 -66.5352 -34.0917 -33.9669 -33.8491 -33.3101
   -33.2302 -33.2286 -33.2115 -33.2103 -33.1169 -32.6609 -32.6488 -32.6471
     1.7272  10.3719  10.3759  12.2524  14.9224  15.9622  15.9823  16.8461
    16.9118  16.9142  17.1167  17.5508  17.9121  18.1334  19.0469  19.0623
    19.3046  19.4724  19.5336  19.7153  20.2628  20.5388  20.7787  20.8779
    21.8698  24.8268

          k = 0.1111 0.1111 0.1111 ( 18439 PWs)   bands (ev):

   -67.3585 -67.3049 -67.3049 -66.5344 -34.0112 -33.9681 -33.9681 -33.2359
   -33.2307 -33.2307 -33.1955 -33.1955 -33.1827 -32.6500 -32.6413 -32.6413
     0.6534  11.8237  12.7773  12.7773  13.1936  15.4347  15.4347  15.7980
    15.7980  15.9800  17.8994  18.1709  18.1709  18.7708  18.7708  20.0060
    20.1165  20.1423  20.1423  20.4008  20.4008  20.4022  20.6832  20.6832
    23.1813  24.0626

          k = 0.1111 0.1111 0.2222 ( 18453 PWs)   bands (ev):

   -67.3540 -67.3092 -67.3049 -66.5346 -34.0255 -33.9653 -33.9473 -33.2434
   -33.2379 -33.2286 -33.1954 -33.1927 -33.1770 -32.6558 -32.6436 -32.6431
     0.8365  11.5662  12.4037  12.5863  13.2016  15.5071  15.6957  15.9215
    16.1320  16.2325  17.7285  18.2747  18.2896  18.6803  18.6805  19.6474
    19.7886  19.9249  19.9928  20.2990  20.4494  20.4716  20.5382  20.7274
    23.2587  23.5524

          k = 0.1111 0.1111 0.3333 ( 18433 PWs)   bands (ev):

   -67.3475 -67.3155 -67.3049 -66.5348 -34.0353 -33.9621 -33.9302 -33.2515
   -33.2455 -33.2239 -33.1937 -33.1924 -33.1728 -32.6597 -32.6476 -32.6463
     1.0616  10.8681  12.3700  12.3992  13.5155  15.4058  16.0631  16.1449
    16.4747  16.5169  17.4470  18.2332  18.3238  18.6236  18.6587  19.2550
    19.5477  19.7155  19.8097  20.1302  20.3510  20.3764  20.5343  20.6671
    23.2545  23.4791

          k = 0.1111 0.1111 0.4444 ( 18446 PWs)   bands (ev):

   -67.3412 -67.3216 -67.3048 -66.5349 -34.0401 -33.9599 -33.9204 -33.2563
   -33.2502 -33.2198 -33.1938 -33.1922 -33.1706 -32.6606 -32.6523 -32.6480
     1.2202  10.3942  12.2895  12.3296  14.0812  15.0141  16.3634  16.3824
    16.6155  16.8203  17.1839  17.9897  18.2137  18.7874  18.8094  19.0182
    19.2800  19.6464  19.6873  20.0053  20.1070  20.3070  20.5547  20.6460
    23.2678  23.5692

          k = 0.1111 0.2222 0.2222 ( 18449 PWs)   bands (ev):

   -67.3499 -67.3108 -67.3072 -66.5347 -34.0486 -33.9564 -33.9257 -33.2587
   -33.2401 -33.2389 -33.1905 -33.1874 -33.1656 -32.6597 -32.6454 -32.6427
     1.0203  11.5143  11.7666  12.3871  13.3761  15.7045  15.8409  16.1111
    16.3314  16.3850  17.6417  18.2108  18.2629  18.5893  18.6019  19.4316
    19.5367  19.8335  19.8427  20.2440  20.4425  20.4846  20.7327  20.8288
    23.2305  23.9475

          k = 0.1111 0.2222 0.3333 ( 18446 PWs)   bands (ev):

   -67.3439 -67.3158 -67.3079 -66.5349 -34.0655 -33.9524 -33.9040 -33.2733
   -33.2497 -33.2378 -33.1876 -33.1852 -33.1549 -32.6607 -32.6484 -32.6446
     1.2468  10.8576  11.6118  12.2611  13.7620  15.6579  16.1554  16.3305
    16.5272  16.6654  17.4262  17.9406  18.1450  18.6008  18.6609  19.2782
    19.3046  19.7071  19.8064  20.0898  20.3805  20.4335  20.7265  20.8366
    23.1215  23.7699

          k = 0.1111 0.2222 0.4444 ( 18434 PWs)   bands (ev):

   -67.3379 -67.3215 -67.3081 -66.5350 -34.0743 -33.9502 -33.8916 -33.2814
   -33.2556 -33.2366 -33.1859 -33.1850 -33.1491 -32.6579 -32.6529 -32.6466
     1.4066  10.3802  11.5688  12.1837  14.2831  15.2976  16.4054  16.5687
    16.6594  16.9777  17.1955  17.6110  18.0539  18.6269  18.8412  19.0778
    19.1793  19.7032  19.8061  19.9542  20.3197  20.3832  20.4882  20.8723
    23.1473  23.7266

          k = 0.1111 0.3333 0.3333 ( 18447 PWs)   bands (ev):

   -67.3385 -67.3174 -67.3114 -66.5350 -34.0886 -33.9480 -33.8788 -33.2921
   -33.2525 -33.2490 -33.1846 -33.1828 -33.1378 -32.6596 -32.6496 -32.6445
     1.4753  10.8125  10.8549  12.1299  14.1548  15.9505  16.0733  16.5540
    16.6812  16.8733  17.3269  17.6479  17.9844  18.5074  18.7407  19.0989
    19.3925  19.5427  19.9240  19.9251  20.2618  20.4113  20.8987  20.9782
    22.5961  24.2112

          k = 0.1111 0.3333 0.4444 ( 18443 PWs)   bands (ev):

   -67.3329 -67.3214 -67.3129 -66.5351 -34.1009 -33.9457 -33.8645 -33.3022
   -33.2583 -33.2513 -33.1831 -33.1823 -33.1284 -32.6577 -32.6501 -32.6459
     1.6370  10.3570  10.8093  12.0489  14.6042  15.6785  16.2442  16.7774
    16.8628  17.0625  17.1775  17.4110  17.9285  18.4038  18.8157  18.9914
    19.3559  19.5852  19.7346  19.9966  20.1410  20.5096  20.7322  21.0732
    22.3521  24.2449

          k = 0.1111 0.4444 0.4444 ( 18443 PWs)   bands (ev):

   -67.3273 -67.3218 -67.3181 -66.5352 -34.1152 -33.9434 -33.8491 -33.3133
   -33.2604 -33.2597 -33.1817 -33.1815 -33.1169 -32.6582 -32.6472 -32.6459
     1.8004  10.3374  10.3389  11.9664  14.9331  15.9995  16.0393  16.8469
    16.9394  17.0015  17.1565  17.6200  17.8812  18.1383  18.6869  19.0344
    19.4391  19.5800  19.6276  19.9199  19.9910  20.7273  20.8656  21.1314
    21.8236  24.5857

          k = 0.2222 0.2222 0.2222 ( 18445 PWs)   bands (ev):

   -67.3462 -67.3107 -67.3107 -66.5348 -34.0773 -33.9237 -33.9237 -33.2612
   -33.2612 -33.2585 -33.1745 -33.1745 -33.1596 -32.6627 -32.6431 -32.6431
     1.2054  11.5058  11.6334  11.6334  13.6118  15.9657  15.9657  16.3812
    16.3962  16.3962  17.6135  18.0861  18.0861  18.6337  18.6337  19.2218
    19.2256  19.7410  19.7410  20.3384  20.4372  20.4372  21.0804  21.0804
    23.3975  23.8155

          k = 0.2222 0.2222 0.3333 ( 18441 PWs)   bands (ev):

   -67.3407 -67.3160 -67.3107 -66.5350 -34.0993 -33.9214 -33.8971 -33.2782
   -33.2759 -33.2613 -33.1695 -33.1640 -33.1501 -32.6617 -32.6446 -32.6436
     1.4338  10.8145  11.4943  11.5405  14.0011  15.8918  16.3473  16.3802
    16.5660  16.7440  17.4590  17.8194  17.9648  18.6058  18.6852  18.9747
    19.2132  19.6810  19.7894  20.2387  20.3910  20.4171  20.9560  21.2857
    23.3375  23.6139

          k = 0.2222 0.2222 0.4444 ( 18436 PWs)   bands (ev):

   -67.3352 -67.3214 -67.3107 -66.5351 -34.1110 -33.9199 -33.8823 -33.2877
   -33.2846 -33.2624 -33.1677 -33.1591 -33.1441 -32.6572 -32.6494 -32.6439
     1.5954  10.3374  11.4094  11.5222  14.4638  15.5469  16.4099  16.6963
    16.7872  17.0774  17.2510  17.4547  17.9244  18.6155  18.7204  18.7988
    19.2517  19.7834  19.8996  20.1212  20.3449  20.3569  20.5390  21.3921
    23.3749  23.4640

          k = 0.2222 0.3333 0.3333 ( 18438 PWs)   bands (ev):

   -67.3360 -67.3174 -67.3138 -66.5351 -34.1261 -33.9091 -33.8779 -33.2981
   -33.2825 -33.2786 -33.1585 -33.1566 -33.1369 -32.6591 -32.6437 -32.6427
     1.6653  10.7519  10.7599  11.4199  14.3574  16.1252  16.1726  16.5860
    16.7956  16.9207  17.4226  17.6827  17.8432  18.5148  18.6476  18.7611
    19.3526  19.6422  19.8905  20.1764  20.3804  20.3975  21.0670  21.4863
    22.7514  23.7080

          k = 0.2222 0.3333 0.4444 ( 18421 PWs)   bands (ev):

   -67.3311 -67.3213 -67.3147 -66.5351 -34.1406 -33.9061 -33.8632 -33.3092
   -33.2912 -33.2830 -33.1562 -33.1519 -33.1279 -32.6546 -32.6455 -32.6424
     1.8297  10.2854  10.7139  11.3581  14.7231  15.8568  16.2687  16.8384
    17.0107  17.0609  17.3087  17.5572  17.8460  18.4191  18.5338  18.7261
    19.4679  19.7473  19.9626  20.0612  20.3211  20.4544  20.7322  21.6898
    22.3543  23.6882

          k = 0.2222 0.4444 0.4444 ( 18424 PWs)   bands (ev):

   -67.3264 -67.3217 -67.3189 -66.5351 -34.1566 -33.9022 -33.8489 -33.3212
   -33.2950 -33.2943 -33.1507 -33.1505 -33.1167 -32.6516 -32.6431 -32.6426
     1.9963  10.2480  10.2521  11.2852  14.9443  16.0837  16.1700  16.6779
    17.2033  17.2399  17.3383  17.7454  17.8434  18.1949  18.3676  18.7275
    19.6941  19.7350  19.8893  19.9599  20.2299  20.6466  20.8152  21.6136
    21.8566  23.8904

          k = 0.3333 0.3333 0.3333 ( 18409 PWs)   bands (ev):

   -67.3324 -67.3174 -67.3174 -66.5351 -34.1567 -33.8768 -33.8768 -33.3058
   -33.3058 -33.2999 -33.1404 -33.1404 -33.1333 -32.6547 -32.6407 -32.6407
     1.9014  10.6411  10.6411  10.7352  14.6291  16.0840  16.4466  16.4466
    17.0958  17.0958  17.5102  17.7473  17.7473  18.4507  18.5256  18.5256
    19.5065  19.8515  19.8515  20.2899  20.3762  20.3762  21.3676  21.3676
    22.9691  22.9691

          k = 0.3333 0.3333 0.4444 ( 18410 PWs)   bands (ev):

   -67.3283 -67.3213 -67.3173 -66.5351 -34.1734 -33.8761 -33.8591 -33.3184
   -33.3145 -33.3075 -33.1377 -33.1312 -33.1256 -32.6492 -32.6413 -32.6393
     2.0697  10.2051  10.5720  10.6656  14.8542  16.0353  16.2876  16.6328
    17.3154  17.3326  17.5108  17.7318  17.8244  18.2900  18.4214  18.5173
    19.6668  19.9043  20.0204  20.2103  20.3908  20.4083  20.7761  21.7176
    22.3424  23.1532

          k = 0.3333 0.4444 0.4444 ( 18408 PWs)   bands (ev):

   -67.3251 -67.3217 -67.3201 -66.5351 -34.1914 -33.8676 -33.8487 -33.3300
   -33.3215 -33.3206 -33.1285 -33.1281 -33.1166 -32.6440 -32.6389 -32.6387
     2.2412  10.1492  10.1587  10.5578  14.9331  16.1687  16.2823  16.4796
    17.5926  17.5995  17.6672  17.8604  17.8667  18.1336  18.3002  18.4925
    19.8640  19.9513  20.0419  20.1417  20.4199  20.4855  20.7230  21.2313
    22.3664  23.1198

          k = 0.4444 0.4444 0.4444 ( 18367 PWs)   bands (ev):

   -67.3235 -67.3217 -67.3217 -66.5351 -34.2105 -33.8486 -33.8486 -33.3357
   -33.3357 -33.3347 -33.1170 -33.1170 -33.1161 -32.6385 -32.6364 -32.6364
     2.4169  10.0870  10.0870  10.1095  14.9150  16.2387  16.3300  16.3300
    17.8950  17.8950  17.9811  17.9811  17.9853  18.0025  18.3665  18.3665
    20.0133  20.0712  20.0712  20.2607  20.3449  20.3449  20.7351  20.7351
    22.6690  22.6690

     the Fermi energy is    18.7319 ev

!    total energy              =   -1345.17149256 Ry
     Harris-Foulkes estimate   =   -1345.17149256 Ry
     estimated scf accuracy    <          6.9E-10 Ry

     total all-electron energy =    -10291.773128 Ry

     The total energy is the sum of the following terms:

     one-electron contribution =    -446.73804643 Ry
     hartree contribution      =     269.20293985 Ry
     xc contribution           =    -117.08752445 Ry
     ewald contribution        =    -711.61403732 Ry
     one-center paw contrib.   =    -338.93491526 Ry
     smearing contrib. (-TS)   =       0.00009105 Ry

     total magnetization       =     7.68 Bohr mag/cell
     absolute magnetization    =     8.03 Bohr mag/cell

     convergence has been achieved in  26 iterations

     Forces acting on atoms (Ry/au):


     negative rho (up, down):  0.000E+00 1.860E-04
     atom    1 type  1   force =     0.00000000    0.00000000    0.00000000
     atom    2 type  1   force =     0.00000000    0.00000000    0.00000000
     atom    3 type  1   force =     0.00000000    0.00000000    0.00000000
     atom    4 type  1   force =     0.00000000    0.00000000    0.00000000
     atom    5 type  2   force =     0.00000000    0.00000000    0.00000000

     Total force =     0.000000     Total SCF correction =     0.000000


     entering subroutine stress ...


     negative rho (up, down):  0.000E+00 1.860E-04
          total   stress  (Ry/bohr**3)                   (kbar)     P=  150.74
   0.00102474   0.00000000   0.00000000        150.74      0.00      0.00
   0.00000000   0.00102474   0.00000000          0.00    150.74      0.00
   0.00000000   0.00000000   0.00102474          0.00      0.00    150.74


     Writing output data file config.save
 
     init_run     :      8.69s CPU     10.90s WALL (       1 calls)
     electrons    :    590.12s CPU    597.82s WALL (       1 calls)
     forces       :      1.98s CPU      2.01s WALL (       1 calls)
     stress       :      7.19s CPU      7.30s WALL (       1 calls)

     Called by init_run:
     wfcinit      :      7.33s CPU      9.31s WALL (       1 calls)
     potinit      :      0.55s CPU      0.57s WALL (       1 calls)

     Called by electrons:
     c_bands      :    479.78s CPU    483.99s WALL (      26 calls)
     sum_band     :     93.77s CPU     95.73s WALL (      26 calls)
     v_of_rho     :      3.52s CPU      3.55s WALL (      27 calls)
     newd         :      3.65s CPU      4.37s WALL (      27 calls)
     mix_rho      :      0.78s CPU      0.78s WALL (      26 calls)

     Called by c_bands:
     init_us_2    :      7.73s CPU      7.80s WALL (    3850 calls)
     cegterg      :    446.38s CPU    450.37s WALL (    1820 calls)

     Called by sum_band:
     sum_band:bec :      0.06s CPU      0.06s WALL (    1820 calls)
     addusdens    :      8.67s CPU      9.57s WALL (      26 calls)

     Called by *egterg:
     h_psi        :    347.02s CPU    350.48s WALL (    6285 calls)
     s_psi        :     15.48s CPU     15.57s WALL (    6285 calls)
     g_psi        :      2.91s CPU      2.93s WALL (    4395 calls)
     cdiaghg      :     18.10s CPU     18.24s WALL (    6215 calls)

     Called by h_psi:
     add_vuspsi   :     15.10s CPU     15.26s WALL (    6285 calls)

     General routines
     calbec       :     20.18s CPU     20.40s WALL (    8455 calls)
     fft          :      2.05s CPU      2.06s WALL (     871 calls)
     ffts         :      0.13s CPU      0.13s WALL (     106 calls)
     fftw         :    335.85s CPU    339.40s WALL (  437642 calls)
     interpolate  :      0.46s CPU      0.46s WALL (     106 calls)
     davcio       :      0.11s CPU      1.25s WALL (      70 calls)
 
     Parallel routines
     fft_scatter  :    117.40s CPU    118.82s WALL (  438619 calls)

     PAW routines
     PAW_pot      :      8.86s CPU      9.44s WALL (      27 calls)
     PAW_symme    :      0.04s CPU      0.04s WALL (      53 calls)
 
     PWSCF        : 10m 8.72s CPU    10m20.50s WALL

 
   This run was terminated on:   1:34: 8  27Oct2020            

=------------------------------------------------------------------------------=
   JOB DONE.
=------------------------------------------------------------------------------=
