
     Program PWSCF v.5.2.0 starts on 27Oct2020 at  1:39:46 

     This program is part of the open-source Quantum ESPRESSO suite
     for quantum simulation of materials; please cite
         "P. Giannozzi et al., J. Phys.:Condens. Matter 21 395502 (2009);
          URL http://www.quantum-espresso.org", 
     in publications or presentations arising from this work. More details at
     http://www.quantum-espresso.org/quote

     Parallel version (MPI), running on     6 processors
     R & G space division:  proc/nbgrp/npool/nimage =       6
     Reading input from 18.in

     Current dimensions of program PWSCF are:
     Max number of different atomic species (ntypx) = 10
     Max number of k-points (npk) =  40000
     Max angular momentum in pseudopotentials (lmaxx) =  3

     IMPORTANT: XC functional enforced from input :
     Exchange-correlation      = PBE ( 1  4  3  4 0 0)
     Any further DFT definition will be discarded
     Please, verify this is what you really want

               file Fe_PSEUDO: wavefunction(s)  3P 3D renormalized
               file N_PSEUDO: wavefunction(s)  2S renormalized

     Subspace diagonalization in iterative solution of the eigenvalue problem:
     a serial algorithm will be used

 
     Parallelization info
     --------------------
     sticks:   dense  smooth     PW     G-vecs:    dense   smooth      PW
     Min         879     586    162                48181    26271    3774
     Max         882     587    163                48182    26289    3776
     Sum        5281    3521    973               289091   157683   22647
 
     Generating pointlists ...
     new r_m :   0.2063 (alat units)  1.4318 (a.u.) for type    1
     new r_m :   0.2063 (alat units)  1.4318 (a.u.) for type    2


     bravais-lattice index     =            0
     lattice parameter (alat)  =       6.9422  a.u.
     unit-cell volume          =     334.5777 (a.u.)^3
     number of atoms/cell      =            5
     number of atomic types    =            2
     number of electrons       =        69.00
     number of Kohn-Sham states=           42
     kinetic-energy cutoff     =     230.0000  Ry
     charge density cutoff     =    1380.0000  Ry
     convergence threshold     =      1.0E-08
     mixing beta               =       0.7000
     number of iterations used =            8  plain     mixing
     Exchange-correlation      = PBE ( 1  4  3  4 0 0)

     celldm(1)=   6.942230  celldm(2)=   0.000000  celldm(3)=   0.000000
     celldm(4)=   0.000000  celldm(5)=   0.000000  celldm(6)=   0.000000

     crystal axes: (cart. coord. in units of alat)
               a(1) = (   1.000000   0.000000   0.000000 )  
               a(2) = (   0.000000   1.000000   0.000000 )  
               a(3) = (   0.000000   0.000000   1.000000 )  

     reciprocal axes: (cart. coord. in units 2 pi/alat)
               b(1) = (  1.000000  0.000000  0.000000 )  
               b(2) = (  0.000000  1.000000  0.000000 )  
               b(3) = (  0.000000  0.000000  1.000000 )  


     PseudoPot. # 1 for Fe read from file:
     pseudo/Fe_PSEUDO
     MD5 check sum: e30d5f36a6f0cb983ee41abee56170da
     Pseudo is Projector augmented-wave + core cor, Zval = 16.0
     Generated using "atomic" code by A. Dal Corso  v.6.3
     Shape of augmentation charge: PSQ
     Using radial grid of 1191 points,  6 beta functions with: 
                l(1) =   0
                l(2) =   0
                l(3) =   1
                l(4) =   1
                l(5) =   2
                l(6) =   2
     Q(r) pseudized with 0 coefficients 


     PseudoPot. # 2 for  N read from file:
     pseudo/N_PSEUDO
     MD5 check sum: 14c48229446f9f2d411169a3abcbc3fa
     Pseudo is Projector augmented-wave + core cor, Zval =  5.0
     Generated using "atomic" code by A. Dal Corso  v.6.3
     Shape of augmentation charge: PSQ
     Using radial grid of 1085 points,  4 beta functions with: 
                l(1) =   0
                l(2) =   0
                l(3) =   1
                l(4) =   1
     Q(r) pseudized with 0 coefficients 


     atomic species   valence    mass     pseudopotential
        Fe            16.00    55.84500     Fe( 1.00)
        N              5.00    14.00650      N( 1.00)

     Starting magnetic structure 
     atomic species   magnetization
        Fe           0.500
        N           -0.010

     48 Sym. Ops., with inversion, found



   Cartesian axes

     site n.     atom                  positions (alat units)
         1           Fe  tau(   1) = (   0.0000000   0.5000000   0.5000000  )
         2           Fe  tau(   2) = (   0.5000000   0.5000000   0.0000000  )
         3           Fe  tau(   3) = (   0.5000000   0.0000000   0.5000000  )
         4           Fe  tau(   4) = (   0.0000000   0.0000000   0.0000000  )
         5           N   tau(   5) = (   0.5000000   0.5000000   0.5000000  )

     number of k points=    70  Marzari-Vanderbilt smearing, width (Ry)=  0.0050
                       cart. coord. in units 2pi/alat
        k(    1) = (   0.0000000   0.0000000   0.0000000), wk =   0.0013717
        k(    2) = (   0.0000000   0.0000000   0.1111111), wk =   0.0082305
        k(    3) = (   0.0000000   0.0000000   0.2222222), wk =   0.0082305
        k(    4) = (   0.0000000   0.0000000   0.3333333), wk =   0.0082305
        k(    5) = (   0.0000000   0.0000000   0.4444444), wk =   0.0082305
        k(    6) = (   0.0000000   0.1111111   0.1111111), wk =   0.0164609
        k(    7) = (   0.0000000   0.1111111   0.2222222), wk =   0.0329218
        k(    8) = (   0.0000000   0.1111111   0.3333333), wk =   0.0329218
        k(    9) = (   0.0000000   0.1111111   0.4444444), wk =   0.0329218
        k(   10) = (   0.0000000   0.2222222   0.2222222), wk =   0.0164609
        k(   11) = (   0.0000000   0.2222222   0.3333333), wk =   0.0329218
        k(   12) = (   0.0000000   0.2222222   0.4444444), wk =   0.0329218
        k(   13) = (   0.0000000   0.3333333   0.3333333), wk =   0.0164609
        k(   14) = (   0.0000000   0.3333333   0.4444444), wk =   0.0329218
        k(   15) = (   0.0000000   0.4444444   0.4444444), wk =   0.0164609
        k(   16) = (   0.1111111   0.1111111   0.1111111), wk =   0.0109739
        k(   17) = (   0.1111111   0.1111111   0.2222222), wk =   0.0329218
        k(   18) = (   0.1111111   0.1111111   0.3333333), wk =   0.0329218
        k(   19) = (   0.1111111   0.1111111   0.4444444), wk =   0.0329218
        k(   20) = (   0.1111111   0.2222222   0.2222222), wk =   0.0329218
        k(   21) = (   0.1111111   0.2222222   0.3333333), wk =   0.0658436
        k(   22) = (   0.1111111   0.2222222   0.4444444), wk =   0.0658436
        k(   23) = (   0.1111111   0.3333333   0.3333333), wk =   0.0329218
        k(   24) = (   0.1111111   0.3333333   0.4444444), wk =   0.0658436
        k(   25) = (   0.1111111   0.4444444   0.4444444), wk =   0.0329218
        k(   26) = (   0.2222222   0.2222222   0.2222222), wk =   0.0109739
        k(   27) = (   0.2222222   0.2222222   0.3333333), wk =   0.0329218
        k(   28) = (   0.2222222   0.2222222   0.4444444), wk =   0.0329218
        k(   29) = (   0.2222222   0.3333333   0.3333333), wk =   0.0329218
        k(   30) = (   0.2222222   0.3333333   0.4444444), wk =   0.0658436
        k(   31) = (   0.2222222   0.4444444   0.4444444), wk =   0.0329218
        k(   32) = (   0.3333333   0.3333333   0.3333333), wk =   0.0109739
        k(   33) = (   0.3333333   0.3333333   0.4444444), wk =   0.0329218
        k(   34) = (   0.3333333   0.4444444   0.4444444), wk =   0.0329218
        k(   35) = (   0.4444444   0.4444444   0.4444444), wk =   0.0109739
        k(   36) = (   0.0000000   0.0000000   0.0000000), wk =   0.0013717
        k(   37) = (   0.0000000   0.0000000   0.1111111), wk =   0.0082305
        k(   38) = (   0.0000000   0.0000000   0.2222222), wk =   0.0082305
        k(   39) = (   0.0000000   0.0000000   0.3333333), wk =   0.0082305
        k(   40) = (   0.0000000   0.0000000   0.4444444), wk =   0.0082305
        k(   41) = (   0.0000000   0.1111111   0.1111111), wk =   0.0164609
        k(   42) = (   0.0000000   0.1111111   0.2222222), wk =   0.0329218
        k(   43) = (   0.0000000   0.1111111   0.3333333), wk =   0.0329218
        k(   44) = (   0.0000000   0.1111111   0.4444444), wk =   0.0329218
        k(   45) = (   0.0000000   0.2222222   0.2222222), wk =   0.0164609
        k(   46) = (   0.0000000   0.2222222   0.3333333), wk =   0.0329218
        k(   47) = (   0.0000000   0.2222222   0.4444444), wk =   0.0329218
        k(   48) = (   0.0000000   0.3333333   0.3333333), wk =   0.0164609
        k(   49) = (   0.0000000   0.3333333   0.4444444), wk =   0.0329218
        k(   50) = (   0.0000000   0.4444444   0.4444444), wk =   0.0164609
        k(   51) = (   0.1111111   0.1111111   0.1111111), wk =   0.0109739
        k(   52) = (   0.1111111   0.1111111   0.2222222), wk =   0.0329218
        k(   53) = (   0.1111111   0.1111111   0.3333333), wk =   0.0329218
        k(   54) = (   0.1111111   0.1111111   0.4444444), wk =   0.0329218
        k(   55) = (   0.1111111   0.2222222   0.2222222), wk =   0.0329218
        k(   56) = (   0.1111111   0.2222222   0.3333333), wk =   0.0658436
        k(   57) = (   0.1111111   0.2222222   0.4444444), wk =   0.0658436
        k(   58) = (   0.1111111   0.3333333   0.3333333), wk =   0.0329218
        k(   59) = (   0.1111111   0.3333333   0.4444444), wk =   0.0658436
        k(   60) = (   0.1111111   0.4444444   0.4444444), wk =   0.0329218
        k(   61) = (   0.2222222   0.2222222   0.2222222), wk =   0.0109739
        k(   62) = (   0.2222222   0.2222222   0.3333333), wk =   0.0329218
        k(   63) = (   0.2222222   0.2222222   0.4444444), wk =   0.0329218
        k(   64) = (   0.2222222   0.3333333   0.3333333), wk =   0.0329218
        k(   65) = (   0.2222222   0.3333333   0.4444444), wk =   0.0658436
        k(   66) = (   0.2222222   0.4444444   0.4444444), wk =   0.0329218
        k(   67) = (   0.3333333   0.3333333   0.3333333), wk =   0.0109739
        k(   68) = (   0.3333333   0.3333333   0.4444444), wk =   0.0329218
        k(   69) = (   0.3333333   0.4444444   0.4444444), wk =   0.0329218
        k(   70) = (   0.4444444   0.4444444   0.4444444), wk =   0.0109739

     Dense  grid:   289091 G-vectors     FFT dimensions: (  90,  90,  90)

     Smooth grid:   157683 G-vectors     FFT dimensions: (  72,  72,  72)

     Largest allocated arrays     est. size (Mb)     dimensions
        Kohn-Sham Wavefunctions         2.11 Mb     (    3287,   42)
        NL pseudopotentials             4.01 Mb     (    3287,   80)
        Each V/rho on FFT grid          3.71 Mb     (  121500,   2)
        Each G-vector array             0.37 Mb     (   48182)
        G-vector shells                 0.01 Mb     (    1399)
     Largest temporary arrays     est. size (Mb)     dimensions
        Auxiliary wavefunctions         8.43 Mb     (    3287,  168)
        Each subspace H/S matrix        0.43 Mb     (     168,  168)
        Each <psi_i|beta_j> matrix      0.05 Mb     (      80,   42)
        Arrays for rho mixing          14.83 Mb     (  121500,    8)

     Initial potential from superposition of free atoms

     starting charge   68.99837, renormalised to   69.00000
     Starting wfc are   44 randomized atomic wfcs
     Checking if some PAW data can be deallocated... 

     total cpu time spent up to now is       13.4 secs

     per-process dynamical memory:   223.8 Mb

     Self-consistent Calculation

     iteration #  1     ecut=   230.00 Ry     beta=0.70
     Davidson diagonalization with overlap
     ethr =  1.00E-02,  avg # of iterations =  3.1

     negative rho (up, down):  0.000E+00 4.396E-04
 
     Magnetic moment per site:
     atom:    1    charge:   12.7333    magn:    4.0982    constr:    0.0000
     atom:    2    charge:   12.7333    magn:    4.0982    constr:    0.0000
     atom:    3    charge:   12.7333    magn:    4.0982    constr:    0.0000
     atom:    4    charge:   12.6138    magn:    4.1676    constr:    0.0000
     atom:    5    charge:    4.6362    magn:    0.1189    constr:    0.0000

     total cpu time spent up to now is       55.4 secs

     total energy              =   -1344.14400200 Ry
     Harris-Foulkes estimate   =   -1343.44701473 Ry
     estimated scf accuracy    <       2.86616704 Ry

     total magnetization       =    13.88 Bohr mag/cell
     absolute magnetization    =    14.05 Bohr mag/cell

     iteration #  2     ecut=   230.00 Ry     beta=0.70
     Davidson diagonalization with overlap
     ethr =  4.15E-03,  avg # of iterations =  3.3

     negative rho (up, down):  0.000E+00 3.996E-04
 
     Magnetic moment per site:
     atom:    1    charge:   12.7244    magn:    3.8172    constr:    0.0000
     atom:    2    charge:   12.7244    magn:    3.8172    constr:    0.0000
     atom:    3    charge:   12.7244    magn:    3.8172    constr:    0.0000
     atom:    4    charge:   13.0649    magn:    3.5711    constr:    0.0000
     atom:    5    charge:    4.2263    magn:    0.0575    constr:    0.0000

     total cpu time spent up to now is       96.3 secs

     total energy              =   -1343.30194351 Ry
     Harris-Foulkes estimate   =   -1345.75100928 Ry
     estimated scf accuracy    <       8.51890758 Ry

     total magnetization       =     9.38 Bohr mag/cell
     absolute magnetization    =    10.50 Bohr mag/cell

     iteration #  3     ecut=   230.00 Ry     beta=0.70
     Davidson diagonalization with overlap
     ethr =  4.15E-03,  avg # of iterations =  3.5

     negative rho (up, down):  0.000E+00 1.325E-04
 
     Magnetic moment per site:
     atom:    1    charge:   12.8850    magn:    3.4486    constr:    0.0000
     atom:    2    charge:   12.8850    magn:    3.4486    constr:    0.0000
     atom:    3    charge:   12.8850    magn:    3.4486    constr:    0.0000
     atom:    4    charge:   12.8121    magn:    3.0191    constr:    0.0000
     atom:    5    charge:    4.0303    magn:    0.0245    constr:    0.0000

     total cpu time spent up to now is      133.8 secs

     total energy              =   -1343.62372651 Ry
     Harris-Foulkes estimate   =   -1346.18893970 Ry
     estimated scf accuracy    <      25.49760698 Ry

     total magnetization       =     3.81 Bohr mag/cell
     absolute magnetization    =     4.51 Bohr mag/cell

     iteration #  4     ecut=   230.00 Ry     beta=0.70
     Davidson diagonalization with overlap
     ethr =  4.15E-03,  avg # of iterations =  3.2

     negative rho (up, down):  0.000E+00 6.241E-04
 
     Magnetic moment per site:
     atom:    1    charge:   12.7744    magn:    2.2626    constr:    0.0000
     atom:    2    charge:   12.7744    magn:    2.2626    constr:    0.0000
     atom:    3    charge:   12.7744    magn:    2.2626    constr:    0.0000
     atom:    4    charge:   12.7286    magn:    1.8796    constr:    0.0000
     atom:    5    charge:    4.0532    magn:   -0.0485    constr:    0.0000

     total cpu time spent up to now is      169.7 secs

     total energy              =   -1345.03027495 Ry
     Harris-Foulkes estimate   =   -1345.10763792 Ry
     estimated scf accuracy    <       0.54786997 Ry

     total magnetization       =    10.75 Bohr mag/cell
     absolute magnetization    =    11.16 Bohr mag/cell

     iteration #  5     ecut=   230.00 Ry     beta=0.70
     Davidson diagonalization with overlap
     ethr =  7.94E-04,  avg # of iterations =  3.3

     negative rho (up, down):  0.000E+00 4.032E-04
 
     Magnetic moment per site:
     atom:    1    charge:   12.8333    magn:    2.1627    constr:    0.0000
     atom:    2    charge:   12.8333    magn:    2.1627    constr:    0.0000
     atom:    3    charge:   12.8333    magn:    2.1627    constr:    0.0000
     atom:    4    charge:   12.8042    magn:    2.0425    constr:    0.0000
     atom:    5    charge:    4.1099    magn:   -0.0267    constr:    0.0000

     total cpu time spent up to now is      208.5 secs

     total energy              =   -1345.11560477 Ry
     Harris-Foulkes estimate   =   -1345.20310496 Ry
     estimated scf accuracy    <       0.24164037 Ry

     total magnetization       =     9.59 Bohr mag/cell
     absolute magnetization    =     9.95 Bohr mag/cell

     iteration #  6     ecut=   230.00 Ry     beta=0.70
     Davidson diagonalization with overlap
     ethr =  3.50E-04,  avg # of iterations =  3.0

     negative rho (up, down):  0.000E+00 2.540E-04
 
     Magnetic moment per site:
     atom:    1    charge:   12.8271    magn:    2.1148    constr:    0.0000
     atom:    2    charge:   12.8271    magn:    2.1148    constr:    0.0000
     atom:    3    charge:   12.8271    magn:    2.1148    constr:    0.0000
     atom:    4    charge:   12.7932    magn:    2.3704    constr:    0.0000
     atom:    5    charge:    4.1120    magn:    0.0065    constr:    0.0000

     total cpu time spent up to now is      244.6 secs

     total energy              =   -1345.16246642 Ry
     Harris-Foulkes estimate   =   -1345.15824075 Ry
     estimated scf accuracy    <       0.02599840 Ry

     total magnetization       =     9.38 Bohr mag/cell
     absolute magnetization    =     9.72 Bohr mag/cell

     iteration #  7     ecut=   230.00 Ry     beta=0.70
     Davidson diagonalization with overlap
     ethr =  3.77E-05,  avg # of iterations =  1.7

     negative rho (up, down):  0.000E+00 3.177E-04
 
     Magnetic moment per site:
     atom:    1    charge:   12.8278    magn:    1.9572    constr:    0.0000
     atom:    2    charge:   12.8278    magn:    1.9572    constr:    0.0000
     atom:    3    charge:   12.8278    magn:    1.9572    constr:    0.0000
     atom:    4    charge:   12.7728    magn:    2.8107    constr:    0.0000
     atom:    5    charge:    4.1112    magn:    0.0392    constr:    0.0000

     total cpu time spent up to now is      276.1 secs

     total energy              =   -1345.16234679 Ry
     Harris-Foulkes estimate   =   -1345.16423280 Ry
     estimated scf accuracy    <       0.01801888 Ry

     total magnetization       =     9.38 Bohr mag/cell
     absolute magnetization    =     9.71 Bohr mag/cell

     iteration #  8     ecut=   230.00 Ry     beta=0.70
     Davidson diagonalization with overlap
     ethr =  2.61E-05,  avg # of iterations =  2.2

     negative rho (up, down):  0.000E+00 3.088E-04
 
     Magnetic moment per site:
     atom:    1    charge:   12.8309    magn:    1.8626    constr:    0.0000
     atom:    2    charge:   12.8309    magn:    1.8626    constr:    0.0000
     atom:    3    charge:   12.8309    magn:    1.8626    constr:    0.0000
     atom:    4    charge:   12.7753    magn:    2.7251    constr:    0.0000
     atom:    5    charge:    4.1091    magn:    0.0310    constr:    0.0000

     total cpu time spent up to now is      312.1 secs

     total energy              =   -1345.16736877 Ry
     Harris-Foulkes estimate   =   -1345.16639294 Ry
     estimated scf accuracy    <       0.00209055 Ry

     total magnetization       =     9.00 Bohr mag/cell
     absolute magnetization    =     9.35 Bohr mag/cell

     iteration #  9     ecut=   230.00 Ry     beta=0.70
     Davidson diagonalization with overlap
     ethr =  3.03E-06,  avg # of iterations =  2.1

     negative rho (up, down):  0.000E+00 3.315E-04
 
     Magnetic moment per site:
     atom:    1    charge:   12.8288    magn:    1.9949    constr:    0.0000
     atom:    2    charge:   12.8288    magn:    1.9949    constr:    0.0000
     atom:    3    charge:   12.8288    magn:    1.9949    constr:    0.0000
     atom:    4    charge:   12.7742    magn:    2.7577    constr:    0.0000
     atom:    5    charge:    4.1139    magn:    0.0387    constr:    0.0000

     total cpu time spent up to now is      344.4 secs

     total energy              =   -1345.16482983 Ry
     Harris-Foulkes estimate   =   -1345.16819006 Ry
     estimated scf accuracy    <       0.00202112 Ry

     total magnetization       =     8.59 Bohr mag/cell
     absolute magnetization    =     8.97 Bohr mag/cell

     iteration # 10     ecut=   230.00 Ry     beta=0.70
     Davidson diagonalization with overlap
     ethr =  2.93E-06,  avg # of iterations =  1.9

     negative rho (up, down):  0.000E+00 3.442E-04
 
     Magnetic moment per site:
     atom:    1    charge:   12.8273    magn:    2.0789    constr:    0.0000
     atom:    2    charge:   12.8273    magn:    2.0789    constr:    0.0000
     atom:    3    charge:   12.8273    magn:    2.0789    constr:    0.0000
     atom:    4    charge:   12.7752    magn:    2.7411    constr:    0.0000
     atom:    5    charge:    4.1174    magn:    0.0452    constr:    0.0000

     total cpu time spent up to now is      376.0 secs

     total energy              =   -1345.16461156 Ry
     Harris-Foulkes estimate   =   -1345.16626396 Ry
     estimated scf accuracy    <       0.00219582 Ry

     total magnetization       =     9.10 Bohr mag/cell
     absolute magnetization    =     9.44 Bohr mag/cell

     iteration # 11     ecut=   230.00 Ry     beta=0.70
     Davidson diagonalization with overlap
     ethr =  2.93E-06,  avg # of iterations =  1.7

     negative rho (up, down):  0.000E+00 2.672E-04
 
     Magnetic moment per site:
     atom:    1    charge:   12.8341    magn:    1.7222    constr:    0.0000
     atom:    2    charge:   12.8341    magn:    1.7222    constr:    0.0000
     atom:    3    charge:   12.8341    magn:    1.7222    constr:    0.0000
     atom:    4    charge:   12.7752    magn:    2.6959    constr:    0.0000
     atom:    5    charge:    4.1042    magn:    0.0139    constr:    0.0000

     total cpu time spent up to now is      407.5 secs

     total energy              =   -1345.16110930 Ry
     Harris-Foulkes estimate   =   -1345.16510363 Ry
     estimated scf accuracy    <       0.00283451 Ry

     total magnetization       =     9.33 Bohr mag/cell
     absolute magnetization    =     9.66 Bohr mag/cell

     iteration # 12     ecut=   230.00 Ry     beta=0.70
     Davidson diagonalization with overlap
     ethr =  2.93E-06,  avg # of iterations =  3.1

     negative rho (up, down):  0.000E+00 1.903E-04
 
     Magnetic moment per site:
     atom:    1    charge:   12.8414    magn:    1.3181    constr:    0.0000
     atom:    2    charge:   12.8414    magn:    1.3181    constr:    0.0000
     atom:    3    charge:   12.8414    magn:    1.3181    constr:    0.0000
     atom:    4    charge:   12.7744    magn:    2.6497    constr:    0.0000
     atom:    5    charge:    4.0881    magn:   -0.0227    constr:    0.0000

     total cpu time spent up to now is      446.8 secs

     total energy              =   -1345.16183252 Ry
     Harris-Foulkes estimate   =   -1345.17035815 Ry
     estimated scf accuracy    <       0.00120298 Ry

     total magnetization       =     8.19 Bohr mag/cell
     absolute magnetization    =     8.58 Bohr mag/cell

     iteration # 13     ecut=   230.00 Ry     beta=0.70
     Davidson diagonalization with overlap
     ethr =  1.74E-06,  avg # of iterations =  3.4

     negative rho (up, down):  0.000E+00 1.871E-04
 
     Magnetic moment per site:
     atom:    1    charge:   12.8436    magn:    1.2140    constr:    0.0000
     atom:    2    charge:   12.8436    magn:    1.2140    constr:    0.0000
     atom:    3    charge:   12.8436    magn:    1.2140    constr:    0.0000
     atom:    4    charge:   12.7743    magn:    2.6455    constr:    0.0000
     atom:    5    charge:    4.0837    magn:   -0.0330    constr:    0.0000

     total cpu time spent up to now is      492.2 secs

     total energy              =   -1345.16956685 Ry
     Harris-Foulkes estimate   =   -1345.17100485 Ry
     estimated scf accuracy    <       0.00058014 Ry

     total magnetization       =     7.23 Bohr mag/cell
     absolute magnetization    =     7.60 Bohr mag/cell

     iteration # 14     ecut=   230.00 Ry     beta=0.70
     Davidson diagonalization with overlap
     ethr =  8.41E-07,  avg # of iterations =  2.7

     negative rho (up, down):  0.000E+00 1.908E-04
 
     Magnetic moment per site:
     atom:    1    charge:   12.8425    magn:    1.2898    constr:    0.0000
     atom:    2    charge:   12.8425    magn:    1.2898    constr:    0.0000
     atom:    3    charge:   12.8425    magn:    1.2898    constr:    0.0000
     atom:    4    charge:   12.7744    magn:    2.6533    constr:    0.0000
     atom:    5    charge:    4.0857    magn:   -0.0275    constr:    0.0000

     total cpu time spent up to now is      527.8 secs

     total energy              =   -1345.17051419 Ry
     Harris-Foulkes estimate   =   -1345.17023636 Ry
     estimated scf accuracy    <       0.00128818 Ry

     total magnetization       =     6.98 Bohr mag/cell
     absolute magnetization    =     7.35 Bohr mag/cell

     iteration # 15     ecut=   230.00 Ry     beta=0.70
     Davidson diagonalization with overlap
     ethr =  8.41E-07,  avg # of iterations =  2.1

     negative rho (up, down):  0.000E+00 1.920E-04
 
     Magnetic moment per site:
     atom:    1    charge:   12.8430    magn:    1.2848    constr:    0.0000
     atom:    2    charge:   12.8430    magn:    1.2848    constr:    0.0000
     atom:    3    charge:   12.8430    magn:    1.2848    constr:    0.0000
     atom:    4    charge:   12.7749    magn:    2.6619    constr:    0.0000
     atom:    5    charge:    4.0847    magn:   -0.0323    constr:    0.0000

     total cpu time spent up to now is      560.2 secs

     total energy              =   -1345.17093173 Ry
     Harris-Foulkes estimate   =   -1345.17087915 Ry
     estimated scf accuracy    <       0.00076134 Ry

     total magnetization       =     7.17 Bohr mag/cell
     absolute magnetization    =     7.54 Bohr mag/cell

     iteration # 16     ecut=   230.00 Ry     beta=0.70
     Davidson diagonalization with overlap
     ethr =  8.41E-07,  avg # of iterations =  1.0

     negative rho (up, down):  0.000E+00 2.224E-04
 
     Magnetic moment per site:
     atom:    1    charge:   12.8388    magn:    1.4984    constr:    0.0000
     atom:    2    charge:   12.8388    magn:    1.4984    constr:    0.0000
     atom:    3    charge:   12.8388    magn:    1.4984    constr:    0.0000
     atom:    4    charge:   12.7744    magn:    2.6891    constr:    0.0000
     atom:    5    charge:    4.0906    magn:   -0.0195    constr:    0.0000

     total cpu time spent up to now is      591.8 secs

     total energy              =   -1345.16845319 Ry
     Harris-Foulkes estimate   =   -1345.17094641 Ry
     estimated scf accuracy    <       0.00079352 Ry

     total magnetization       =     7.17 Bohr mag/cell
     absolute magnetization    =     7.53 Bohr mag/cell

     iteration # 17     ecut=   230.00 Ry     beta=0.70
     Davidson diagonalization with overlap
     ethr =  8.41E-07,  avg # of iterations =  3.1

     negative rho (up, down):  0.000E+00 2.227E-04
 
     Magnetic moment per site:
     atom:    1    charge:   12.8386    magn:    1.5057    constr:    0.0000
     atom:    2    charge:   12.8386    magn:    1.5057    constr:    0.0000
     atom:    3    charge:   12.8386    magn:    1.5057    constr:    0.0000
     atom:    4    charge:   12.7744    magn:    2.6859    constr:    0.0000
     atom:    5    charge:    4.0912    magn:   -0.0177    constr:    0.0000

     total cpu time spent up to now is      633.9 secs

     total energy              =   -1345.17141641 Ry
     Harris-Foulkes estimate   =   -1345.17142778 Ry
     estimated scf accuracy    <       0.00088839 Ry

     total magnetization       =     7.74 Bohr mag/cell
     absolute magnetization    =     8.08 Bohr mag/cell

     iteration # 18     ecut=   230.00 Ry     beta=0.70
     Davidson diagonalization with overlap
     ethr =  8.41E-07,  avg # of iterations =  1.0

     negative rho (up, down):  0.000E+00 2.234E-04
 
     Magnetic moment per site:
     atom:    1    charge:   12.8364    magn:    1.5492    constr:    0.0000
     atom:    2    charge:   12.8364    magn:    1.5492    constr:    0.0000
     atom:    3    charge:   12.8364    magn:    1.5492    constr:    0.0000
     atom:    4    charge:   12.7740    magn:    2.6669    constr:    0.0000
     atom:    5    charge:    4.0958    magn:   -0.0042    constr:    0.0000

     total cpu time spent up to now is      664.5 secs

     total energy              =   -1345.17122251 Ry
     Harris-Foulkes estimate   =   -1345.17142122 Ry
     estimated scf accuracy    <       0.00071820 Ry

     total magnetization       =     7.75 Bohr mag/cell
     absolute magnetization    =     8.10 Bohr mag/cell

     iteration # 19     ecut=   230.00 Ry     beta=0.70
     Davidson diagonalization with overlap
     ethr =  8.41E-07,  avg # of iterations =  2.0

     negative rho (up, down):  0.000E+00 2.190E-04
 
     Magnetic moment per site:
     atom:    1    charge:   12.8368    magn:    1.5307    constr:    0.0000
     atom:    2    charge:   12.8368    magn:    1.5307    constr:    0.0000
     atom:    3    charge:   12.8368    magn:    1.5307    constr:    0.0000
     atom:    4    charge:   12.7739    magn:    2.6662    constr:    0.0000
     atom:    5    charge:    4.0949    magn:   -0.0058    constr:    0.0000

     total cpu time spent up to now is      697.0 secs

     total energy              =   -1345.17142221 Ry
     Harris-Foulkes estimate   =   -1345.17139322 Ry
     estimated scf accuracy    <       0.00011639 Ry

     total magnetization       =     7.84 Bohr mag/cell
     absolute magnetization    =     8.19 Bohr mag/cell

     iteration # 20     ecut=   230.00 Ry     beta=0.70
     Davidson diagonalization with overlap
     ethr =  1.69E-07,  avg # of iterations =  1.4

     negative rho (up, down):  0.000E+00 2.059E-04
 
     Magnetic moment per site:
     atom:    1    charge:   12.8372    magn:    1.4841    constr:    0.0000
     atom:    2    charge:   12.8372    magn:    1.4841    constr:    0.0000
     atom:    3    charge:   12.8372    magn:    1.4841    constr:    0.0000
     atom:    4    charge:   12.7737    magn:    2.6530    constr:    0.0000
     atom:    5    charge:    4.0946    magn:   -0.0040    constr:    0.0000

     total cpu time spent up to now is      727.9 secs

     total energy              =   -1345.17134465 Ry
     Harris-Foulkes estimate   =   -1345.17144474 Ry
     estimated scf accuracy    <       0.00012126 Ry

     total magnetization       =     7.80 Bohr mag/cell
     absolute magnetization    =     8.15 Bohr mag/cell

     iteration # 21     ecut=   230.00 Ry     beta=0.70
     Davidson diagonalization with overlap
     ethr =  1.69E-07,  avg # of iterations =  2.8

     negative rho (up, down):  0.000E+00 2.059E-04
 
     Magnetic moment per site:
     atom:    1    charge:   12.8373    magn:    1.4835    constr:    0.0000
     atom:    2    charge:   12.8373    magn:    1.4835    constr:    0.0000
     atom:    3    charge:   12.8373    magn:    1.4835    constr:    0.0000
     atom:    4    charge:   12.7738    magn:    2.6541    constr:    0.0000
     atom:    5    charge:    4.0945    magn:   -0.0045    constr:    0.0000

     total cpu time spent up to now is      763.9 secs

     total energy              =   -1345.17150417 Ry
     Harris-Foulkes estimate   =   -1345.17150410 Ry
     estimated scf accuracy    <       0.00000445 Ry

     total magnetization       =     7.67 Bohr mag/cell
     absolute magnetization    =     8.02 Bohr mag/cell

     iteration # 22     ecut=   230.00 Ry     beta=0.70
     Davidson diagonalization with overlap
     ethr =  6.45E-09,  avg # of iterations =  2.3

     negative rho (up, down):  0.000E+00 2.065E-04
 
     Magnetic moment per site:
     atom:    1    charge:   12.8373    magn:    1.4843    constr:    0.0000
     atom:    2    charge:   12.8373    magn:    1.4843    constr:    0.0000
     atom:    3    charge:   12.8373    magn:    1.4843    constr:    0.0000
     atom:    4    charge:   12.7738    magn:    2.6545    constr:    0.0000
     atom:    5    charge:    4.0946    magn:   -0.0045    constr:    0.0000

     total cpu time spent up to now is      797.1 secs

     total energy              =   -1345.17150437 Ry
     Harris-Foulkes estimate   =   -1345.17150470 Ry
     estimated scf accuracy    <       0.00000542 Ry

     total magnetization       =     7.67 Bohr mag/cell
     absolute magnetization    =     8.02 Bohr mag/cell

     iteration # 23     ecut=   230.00 Ry     beta=0.70
     Davidson diagonalization with overlap
     ethr =  6.45E-09,  avg # of iterations =  1.2

     negative rho (up, down):  0.000E+00 2.068E-04
 
     Magnetic moment per site:
     atom:    1    charge:   12.8374    magn:    1.4853    constr:    0.0000
     atom:    2    charge:   12.8374    magn:    1.4853    constr:    0.0000
     atom:    3    charge:   12.8374    magn:    1.4853    constr:    0.0000
     atom:    4    charge:   12.7739    magn:    2.6544    constr:    0.0000
     atom:    5    charge:    4.0946    magn:   -0.0041    constr:    0.0000

     total cpu time spent up to now is      827.8 secs

     total energy              =   -1345.17150466 Ry
     Harris-Foulkes estimate   =   -1345.17150472 Ry
     estimated scf accuracy    <       0.00000090 Ry

     total magnetization       =     7.67 Bohr mag/cell
     absolute magnetization    =     8.02 Bohr mag/cell

     iteration # 24     ecut=   230.00 Ry     beta=0.70
     Davidson diagonalization with overlap
     ethr =  1.30E-09,  avg # of iterations =  2.4

     negative rho (up, down):  0.000E+00 2.069E-04
 
     Magnetic moment per site:
     atom:    1    charge:   12.8374    magn:    1.4865    constr:    0.0000
     atom:    2    charge:   12.8374    magn:    1.4865    constr:    0.0000
     atom:    3    charge:   12.8374    magn:    1.4865    constr:    0.0000
     atom:    4    charge:   12.7739    magn:    2.6543    constr:    0.0000
     atom:    5    charge:    4.0946    magn:   -0.0039    constr:    0.0000

     total cpu time spent up to now is      861.2 secs

     total energy              =   -1345.17150494 Ry
     Harris-Foulkes estimate   =   -1345.17150494 Ry
     estimated scf accuracy    <       0.00000008 Ry

     total magnetization       =     7.68 Bohr mag/cell
     absolute magnetization    =     8.03 Bohr mag/cell

     iteration # 25     ecut=   230.00 Ry     beta=0.70
     Davidson diagonalization with overlap
     ethr =  1.23E-10,  avg # of iterations =  2.6

     negative rho (up, down):  0.000E+00 2.069E-04
 
     Magnetic moment per site:
     atom:    1    charge:   12.8374    magn:    1.4871    constr:    0.0000
     atom:    2    charge:   12.8374    magn:    1.4871    constr:    0.0000
     atom:    3    charge:   12.8374    magn:    1.4871    constr:    0.0000
     atom:    4    charge:   12.7739    magn:    2.6540    constr:    0.0000
     atom:    5    charge:    4.0947    magn:   -0.0037    constr:    0.0000

     total cpu time spent up to now is      896.6 secs

     total energy              =   -1345.17150502 Ry
     Harris-Foulkes estimate   =   -1345.17150506 Ry
     estimated scf accuracy    <       0.00000019 Ry

     total magnetization       =     7.68 Bohr mag/cell
     absolute magnetization    =     8.03 Bohr mag/cell

     iteration # 26     ecut=   230.00 Ry     beta=0.70
     Davidson diagonalization with overlap
     ethr =  1.23E-10,  avg # of iterations =  2.6

     negative rho (up, down):  0.000E+00 2.069E-04
 
     Magnetic moment per site:
     atom:    1    charge:   12.8374    magn:    1.4875    constr:    0.0000
     atom:    2    charge:   12.8374    magn:    1.4875    constr:    0.0000
     atom:    3    charge:   12.8374    magn:    1.4875    constr:    0.0000
     atom:    4    charge:   12.7739    magn:    2.6540    constr:    0.0000
     atom:    5    charge:    4.0947    magn:   -0.0036    constr:    0.0000

     total cpu time spent up to now is      931.4 secs

     total energy              =   -1345.17150506 Ry
     Harris-Foulkes estimate   =   -1345.17150507 Ry
     estimated scf accuracy    <       0.00000001 Ry

     total magnetization       =     7.68 Bohr mag/cell
     absolute magnetization    =     8.03 Bohr mag/cell

     iteration # 27     ecut=   230.00 Ry     beta=0.70
     Davidson diagonalization with overlap
     ethr =  1.95E-11,  avg # of iterations =  2.5

     negative rho (up, down):  0.000E+00 2.069E-04
 
     Magnetic moment per site:
     atom:    1    charge:   12.8374    magn:    1.4876    constr:    0.0000
     atom:    2    charge:   12.8374    magn:    1.4876    constr:    0.0000
     atom:    3    charge:   12.8374    magn:    1.4876    constr:    0.0000
     atom:    4    charge:   12.7739    magn:    2.6539    constr:    0.0000
     atom:    5    charge:    4.0947    magn:   -0.0036    constr:    0.0000

     total cpu time spent up to now is      966.9 secs

     End of self-consistent calculation

 ------ SPIN UP ------------


          k = 0.0000 0.0000 0.0000 ( 19597 PWs)   bands (ev):

   -69.9380 -69.2604 -69.2060 -69.2060 -35.9990 -35.9990 -35.9990 -35.6165
   -35.6165 -35.6165 -35.1594 -35.1594 -35.1594 -35.1527 -35.1527 -35.1527
     0.3455  11.4280  13.3303  13.3303  13.3303  13.8393  13.8393  14.1047
    14.1047  14.1047  16.0919  16.0919  16.0919  17.1981  17.1981  17.8458
    17.8458  18.3980  18.3980  18.3980  18.4656  18.4656  18.4656  18.4672
    21.8873  23.7552

          k = 0.0000 0.0000 0.1111 ( 19709 PWs)   bands (ev):

   -69.9379 -69.2590 -69.2075 -69.2060 -35.9980 -35.9980 -35.9976 -35.6153
   -35.6153 -35.6143 -35.1604 -35.1604 -35.1596 -35.1576 -35.1539 -35.1539
     0.4152  11.4853  12.9271  13.1103  13.1103  13.9187  13.9303  14.1571
    14.3438  14.3438  16.0273  16.1459  16.1459  17.2212  17.2570  17.8144
    17.8699  18.3136  18.3136  18.3979  18.3979  18.3981  18.4061  18.4645
    21.9633  23.2362

          k = 0.0000 0.0000 0.2222 ( 19717 PWs)   bands (ev):

   -69.9377 -69.2550 -69.2116 -69.2060 -35.9955 -35.9955 -35.9941 -35.6123
   -35.6123 -35.6083 -35.1702 -35.1632 -35.1632 -35.1604 -35.1568 -35.1568
     0.6002  11.3377  12.5042  12.7671  12.7671  14.0809  14.1351  14.3087
    14.7507  14.7507  15.8446  16.2719  16.2719  17.1940  17.2855  17.7241
    17.7685  17.9540  17.9540  18.2391  18.3985  18.4013  18.4013  18.4617
    22.1773  22.5168

          k = 0.0000 0.0000 0.3333 ( 19718 PWs)   bands (ev):

   -69.9374 -69.2494 -69.2176 -69.2059 -35.9926 -35.9926 -35.9903 -35.6088
   -35.6088 -35.6008 -35.1851 -35.1669 -35.1669 -35.1612 -35.1596 -35.1596
     0.8281  10.6696  12.4972  12.4972  12.8458  14.1974  14.4171  14.5420
    15.1424  15.1424  15.5758  16.3644  16.3644  16.9834  17.3211  17.3614
    17.5813  17.5813  17.6123  18.0169  18.3989  18.4143  18.4143  18.4589
    22.0440  22.5714

          k = 0.0000 0.0000 0.4444 ( 19754 PWs)   bands (ev):

   -69.9372 -69.2440 -69.2231 -69.2059 -35.9907 -35.9907 -35.9877 -35.6064
   -35.6064 -35.5955 -35.1952 -35.1696 -35.1696 -35.1618 -35.1613 -35.1613
     0.9889  10.1828  12.3530  12.3530  13.4005  14.1246  14.6314  14.8076
    15.2870  15.4346  15.4346  16.3331  16.3331  16.7317  16.9436  17.3460
    17.3741  17.3741  17.6397  17.8042  18.3992  18.4296  18.4296  18.4572
    21.9107  22.7892

          k = 0.0000 0.1111 0.1111 ( 19693 PWs)   bands (ev):

   -69.9378 -69.2576 -69.2082 -69.2067 -35.9983 -35.9970 -35.9953 -35.6264
   -35.6141 -35.6000 -35.1707 -35.1613 -35.1609 -35.1577 -35.1552 -35.1489
     0.4850  11.5392  12.6985  12.8567  12.9537  13.9959  14.0037  14.2122
    14.4868  14.5133  16.0037  16.1625  16.1923  17.2486  17.2726  17.7257
    17.7830  18.2258  18.2637  18.3177  18.3241  18.4099  18.4787  18.5423
    22.0239  23.4380

          k = 0.0000 0.1111 0.2222 ( 19721 PWs)   bands (ev):

   -69.9376 -69.2538 -69.2119 -69.2070 -35.9968 -35.9946 -35.9921 -35.6340
   -35.6109 -35.5840 -35.1860 -35.1659 -35.1641 -35.1588 -35.1582 -35.1445
     0.6703  11.3589  12.2604  12.6629  12.6764  14.1570  14.2065  14.3622
    14.8141  14.8587  15.8415  16.2811  16.2887  17.1595  17.3233  17.4378
    17.5841  17.9112  18.1397  18.1981  18.2417  18.3836  18.5580  18.6821
    22.2025  22.6700

          k = 0.0000 0.1111 0.3333 ( 19711 PWs)   bands (ev):

   -69.9373 -69.2482 -69.2177 -69.2070 -35.9940 -35.9918 -35.9894 -35.6377
   -35.6072 -35.5700 -35.2013 -35.1709 -35.1677 -35.1612 -35.1608 -35.1423
     0.8986  10.6613  12.1383  12.4160  12.9458  14.2824  14.4857  14.5911
    15.1749  15.2144  15.5801  16.2914  16.3932  16.9292  17.0975  17.2656
    17.4901  17.5574  17.8562  18.0732  18.1794  18.3772  18.6297  18.6757
    22.2615  22.4502

          k = 0.0000 0.1111 0.4444 ( 19734 PWs)   bands (ev):

   -69.9371 -69.2429 -69.2232 -69.2070 -35.9915 -35.9900 -35.9884 -35.6390
   -35.6048 -35.5616 -35.2110 -35.1741 -35.1703 -35.1630 -35.1622 -35.1414
     1.0599  10.1713  12.0376  12.2805  13.4692  14.2192  14.7008  14.8574
    15.2904  15.4586  15.4813  16.1374  16.3910  16.6627  16.8638  17.2553
    17.3553  17.4654  17.7078  17.8993  18.1432  18.3751  18.6537  18.6757
    22.1429  22.6121

          k = 0.0000 0.2222 0.2222 ( 19696 PWs)   bands (ev):

   -69.9374 -69.2501 -69.2136 -69.2091 -35.9970 -35.9924 -35.9899 -35.6525
   -35.6074 -35.5585 -35.2074 -35.1685 -35.1664 -35.1618 -35.1605 -35.1309
     0.8565  11.2947  11.5675  12.4407  12.7894  14.3574  14.3834  14.5048
    15.0140  15.1101  15.7596  16.2747  16.3626  17.0224  17.0276  17.3102
    17.4584  17.7423  18.0342  18.0882  18.2576  18.3349  18.7084  18.9942
    22.1159  22.9984

          k = 0.0000 0.2222 0.3333 ( 19683 PWs)   bands (ev):

   -69.9371 -69.2448 -69.2182 -69.2100 -35.9956 -35.9898 -35.9893 -35.6649
   -35.6033 -35.5378 -35.2254 -35.1713 -35.1696 -35.1654 -35.1628 -35.1219
     1.0864  10.6284  11.3677  12.2331  13.1801  14.5162  14.6610  14.7161
    15.2786  15.3904  15.5579  16.0661  16.4957  16.7576  16.8084  17.1019
    17.4754  17.6356  17.8027  17.9577  18.1966  18.3520  18.8357  19.0291
    21.9455  22.8234

          k = 0.0000 0.2222 0.4444 ( 19697 PWs)   bands (ev):

   -69.9370 -69.2397 -69.2233 -69.2102 -35.9933 -35.9903 -35.9882 -35.6710
   -35.6006 -35.5261 -35.2358 -35.1732 -35.1722 -35.1673 -35.1644 -35.1175
     1.2492  10.1368  11.3031  12.1145  13.6797  14.4691  14.8907  14.9677
    15.2992  15.4956  15.5994  15.8224  16.5515  16.5533  16.6111  17.0965
    17.2977  17.5285  17.8747  17.8797  18.1775  18.2113  18.9124  18.9629
    21.9126  22.7456

          k = 0.0000 0.3333 0.3333 ( 19692 PWs)   bands (ev):

   -69.9370 -69.2399 -69.2198 -69.2134 -35.9961 -35.9905 -35.9875 -35.6844
   -35.5987 -35.5125 -35.2450 -35.1721 -35.1713 -35.1699 -35.1653 -35.1071
     1.3189  10.5582  10.5958  12.0537  13.5741  14.8383  14.8433  14.8881
    15.4138  15.4601  15.5949  15.7404  16.5550  16.6479  16.6577  16.8986
    17.3281  17.6091  17.7581  17.9052  18.0436  18.5478  19.0042  19.1744
    21.2660  23.3555

          k = 0.0000 0.3333 0.4444 ( 19709 PWs)   bands (ev):

   -69.9368 -69.2348 -69.2234 -69.2150 -35.9950 -35.9927 -35.9861 -35.6944
   -35.5956 -35.4985 -35.2558 -35.1744 -35.1723 -35.1712 -35.1671 -35.0994
     1.4839  10.0899  10.5351  11.9483  14.0223  14.7991  15.0849  15.1282
    15.2952  15.5098  15.5581  15.7463  16.4015  16.4738  16.7777  16.8316
    17.2031  17.3997  17.6207  17.9740  18.1738  18.5808  19.1028  19.1297
    20.9078  23.4487

          k = 0.0000 0.4444 0.4444 ( 19706 PWs)   bands (ev):

   -69.9367 -69.2293 -69.2239 -69.2201 -35.9956 -35.9948 -35.9847 -35.7068
   -35.5924 -35.4833 -35.2668 -35.1758 -35.1756 -35.1699 -35.1690 -35.0898
     1.6508  10.0557  10.0562  11.8496  14.3680  15.0247  15.1858  15.2539
    15.2589  15.4090  15.5744  15.8590  16.3137  16.3955  16.5768  16.9868
    17.1136  17.2346  17.4094  17.8576  18.3840  18.9442  19.1749  19.2129
    20.1303  23.9982

          k = 0.1111 0.1111 0.1111 ( 19720 PWs)   bands (ev):

   -69.9377 -69.2563 -69.2081 -69.2081 -35.9976 -35.9976 -35.9931 -35.6386
   -35.5988 -35.5988 -35.1737 -35.1700 -35.1700 -35.1509 -35.1491 -35.1491
     0.5548  11.5893  12.5636  12.5636  12.8354  14.0717  14.0717  14.3894
    14.3894  14.7340  15.9884  16.2021  16.2021  17.2667  17.2667  17.6641
    17.6641  17.9910  18.1231  18.3440  18.3440  18.4196  18.6408  18.6408
    22.0741  23.5625

          k = 0.1111 0.1111 0.2222 ( 19695 PWs)   bands (ev):

   -69.9375 -69.2525 -69.2121 -69.2081 -35.9966 -35.9958 -35.9899 -35.6508
   -35.5959 -35.5784 -35.1903 -35.1804 -35.1717 -35.1512 -35.1462 -35.1439
     0.7405  11.3709  12.1431  12.2978  12.7587  14.2323  14.2774  14.4623
    14.7620  15.0131  15.8440  16.2846  16.2951  17.1760  17.2940  17.3838
    17.4077  17.7634  17.9268  18.2174  18.3451  18.3561  18.8018  18.8326
    22.2207  22.8347

          k = 0.1111 0.1111 0.3333 ( 19690 PWs)   bands (ev):

   -69.9372 -69.2471 -69.2178 -69.2081 -35.9938 -35.9938 -35.9879 -35.6583
   -35.5926 -35.5610 -35.2065 -35.1890 -35.1728 -35.1530 -35.1469 -35.1398
     0.9694  10.6461  12.0639  12.0767  13.0382  14.3637  14.5546  14.6647
    15.1709  15.2802  15.5906  16.2779  16.3442  16.9167  17.0707  17.1115
    17.4308  17.6062  17.7040  18.0895  18.2500  18.3339  18.6809  18.9923
    22.4188  22.4433

          k = 0.1111 0.1111 0.4444 ( 19726 PWs)   bands (ev):

   -69.9371 -69.2418 -69.2232 -69.2081 -35.9924 -35.9905 -35.9882 -35.6616
   -35.5903 -35.5508 -35.2166 -35.1940 -35.1734 -35.1541 -35.1484 -35.1379
     1.1312  10.1542  11.9340  12.0076  13.5363  14.3072  14.7708  14.9229
    15.3008  15.4548  15.5303  16.0756  16.2780  16.6258  16.9673  17.0969
    17.3339  17.4990  17.7090  17.9300  18.1841  18.3236  18.5237  19.0838
    22.3367  22.5621

          k = 0.1111 0.2222 0.2222 ( 19723 PWs)   bands (ev):

   -69.9373 -69.2490 -69.2136 -69.2103 -35.9970 -35.9949 -35.9875 -35.6709
   -35.5867 -35.5576 -35.2084 -35.1854 -35.1819 -35.1468 -35.1459 -35.1312
     0.9272  11.2970  11.4890  12.0698  12.8955  14.4279  14.4564  14.6310
    14.9388  15.2086  15.7700  16.2695  16.3400  17.0316  17.0916  17.2140
    17.3956  17.5440  17.7220  18.2478  18.2496  18.3215  19.0775  19.1104
    22.1894  23.1063

          k = 0.1111 0.2222 0.3333 ( 19712 PWs)   bands (ev):

   -69.9371 -69.2439 -69.2182 -69.2109 -35.9960 -35.9934 -35.9868 -35.6852
   -35.5823 -35.5363 -35.2257 -35.1941 -35.1841 -35.1477 -35.1445 -35.1220
     1.1580  10.5980  11.3112  11.9146  13.2656  14.5773  14.7279  14.8334
    15.2636  15.3763  15.5835  16.1021  16.3719  16.7650  16.9124  17.0312
    17.4418  17.4780  17.6144  18.1518  18.1974  18.2543  18.9965  19.3336
    22.0568  22.8860

          k = 0.1111 0.2222 0.4444 ( 19697 PWs)   bands (ev):

   -69.9369 -69.2388 -69.2233 -69.2111 -35.9944 -35.9922 -35.9877 -35.6923
   -35.5797 -35.5238 -35.2358 -35.1997 -35.1845 -35.1485 -35.1446 -35.1174
     1.3215  10.1072  11.2411  11.8216  13.7357  14.5291  14.9594  15.0708
    15.3032  15.4784  15.6036  15.8647  16.2988  16.5432  16.8768  16.9673
    17.3022  17.4479  17.7962  18.0500  18.1007  18.2331  18.7427  19.4751
    22.0151  22.8356

          k = 0.1111 0.3333 0.3333 ( 19679 PWs)   bands (ev):

   -69.9369 -69.2391 -69.2198 -69.2142 -35.9968 -35.9934 -35.9869 -35.7053
   -35.5768 -35.5121 -35.2439 -35.1955 -35.1927 -35.1459 -35.1445 -35.1072
     1.3917  10.5242  10.5391  11.7567  13.6359  14.8223  14.9037  15.0685
    15.3296  15.4718  15.5693  15.9047  16.3665  16.6359  16.7524  16.9582
    17.3276  17.3351  17.7952  18.0111  18.1086  18.3393  19.2233  19.4678
    21.3616  23.2563

          k = 0.1111 0.3333 0.4444 ( 19708 PWs)   bands (ev):

   -69.9368 -69.2342 -69.2234 -69.2156 -35.9961 -35.9943 -35.9873 -35.7159
   -35.5738 -35.4980 -35.2542 -35.1999 -35.1940 -35.1457 -35.1444 -35.0994
     1.5577  10.0487  10.4832  11.6622  14.0409  14.7948  15.0909  15.2861
    15.2942  15.5092  15.5621  15.9172  16.2895  16.4459  16.7279  16.9207
    17.2026  17.3106  17.8564  17.9763  18.0302  18.4887  19.0168  19.6592
    20.9538  23.3824

          k = 0.1111 0.4444 0.4444 ( 19702 PWs)   bands (ev):

   -69.9367 -69.2290 -69.2239 -69.2204 -35.9968 -35.9961 -35.9870 -35.7285
   -35.5706 -35.4832 -35.2644 -35.1997 -35.1993 -35.1447 -35.1444 -35.0898
     1.7260  10.0073  10.0093  11.5674  14.3230  14.9815  15.0452  15.2044
    15.5459  15.5517  15.6298  16.0534  16.2557  16.3616  16.5043  16.9235
    17.1739  17.2213  17.6744  17.9342  18.0854  18.8777  19.1702  19.7000
    20.1195  23.7363

          k = 0.2222 0.2222 0.2222 ( 19684 PWs)   bands (ev):

   -69.9372 -69.2458 -69.2136 -69.2136 -35.9969 -35.9969 -35.9858 -35.6966
   -35.5553 -35.5553 -35.2159 -35.1986 -35.1986 -35.1337 -35.1337 -35.1296
     1.1157  11.2708  11.3111  11.3111  13.1132  14.6221  14.6221  14.9418
    14.9418  15.3039  15.7315  16.2792  16.2792  16.9690  16.9690  17.2822
    17.2822  17.2920  17.4269  18.2282  18.2282  18.3815  19.4145  19.4145
    22.2834  23.0621

          k = 0.2222 0.2222 0.3333 ( 19712 PWs)   bands (ev):

   -69.9370 -69.2411 -69.2184 -69.2135 -35.9969 -35.9968 -35.9864 -35.7157
   -35.5526 -35.5293 -35.2300 -35.2115 -35.2013 -35.1337 -35.1259 -35.1201
     1.3490  10.5167  11.1352  11.2354  13.4787  14.7336  14.8917  15.1004
    15.2916  15.2954  15.6687  16.1477  16.2338  16.7240  16.7859  17.1814
    17.1843  17.3771  17.5204  18.1613  18.2195  18.3161  19.2416  19.7639
    22.2486  22.6935

          k = 0.2222 0.2222 0.4444 ( 19704 PWs)   bands (ev):

   -69.9369 -69.2363 -69.2233 -69.2135 -35.9968 -35.9951 -35.9885 -35.7257
   -35.5508 -35.5146 -35.2389 -35.2186 -35.2015 -35.1342 -35.1225 -35.1147
     1.5148  10.0324  11.0316  11.1935  13.8846  14.6645  15.1471  15.1479
    15.4029  15.4923  15.6114  15.9864  16.1834  16.4972  16.7711  17.0061
    17.1466  17.5598  17.7230  18.0964  18.1963  18.2420  18.8106  20.0142
    22.2601  22.3755

          k = 0.2222 0.3333 0.3333 ( 19696 PWs)   bands (ev):

   -69.9368 -69.2369 -69.2198 -69.2164 -35.9986 -35.9978 -35.9883 -35.7396
   -35.5400 -35.5108 -35.2418 -35.2168 -35.2133 -35.1248 -35.1234 -35.1073
     1.5864  10.4046  10.4370  11.0620  13.7832  14.8926  14.9971  15.1534
    15.4036  15.4569  15.8013  16.1022  16.2130  16.6136  16.6339  16.9615
    17.3037  17.3488  17.6458  18.1527  18.2321  18.2818  19.4024  19.9182
    21.6312  22.6891

          k = 0.2222 0.3333 0.4444 ( 19699 PWs)   bands (ev):

   -69.9367 -69.2325 -69.2234 -69.2172 -35.9990 -35.9979 -35.9908 -35.7523
   -35.5367 -35.4966 -35.2502 -35.2227 -35.2147 -35.1244 -35.1195 -35.0995
     1.7557   9.9477  10.3577  10.9826  14.0721  14.8047  15.0270  15.2235
    15.4898  15.7145  15.8749  16.1616  16.1874  16.4231  16.6199  16.8034
    17.2857  17.5119  17.7753  18.1060  18.1693  18.3879  19.0264  20.2481
    21.0538  22.6439

          k = 0.2222 0.4444 0.4444 ( 19709 PWs)   bands (ev):

   -69.9367 -69.2282 -69.2238 -69.2212 -35.9998 -35.9995 -35.9929 -35.7667
   -35.5323 -35.4830 -35.2585 -35.2224 -35.2217 -35.1195 -35.1193 -35.0898
     1.9279   9.8897   9.8970  10.8923  14.2093  14.8977  14.9495  15.0888
    15.6720  16.0013  16.1135  16.2019  16.2631  16.3985  16.5119  16.6591
    17.4066  17.4414  17.8212  17.9826  18.1010  18.7643  19.1468  19.9406
    20.4395  22.9020

          k = 0.3333 0.3333 0.3333 ( 19748 PWs)   bands (ev):

   -69.9367 -69.2336 -69.2198 -69.2198 -36.0007 -36.0007 -35.9919 -35.7673
   -35.5094 -35.5094 -35.2430 -35.2286 -35.2286 -35.1098 -35.1098 -35.1053
     1.8295  10.2646  10.2646  10.4018  13.9568  14.9418  14.9943  14.9943
    15.6691  15.6691  16.1350  16.2176  16.2176  16.5750  16.5750  16.7363
    17.4732  17.5583  17.5583  18.2037  18.2037  18.3420  19.7535  19.7535
    21.9450  21.9450

          k = 0.3333 0.3333 0.4444 ( 19752 PWs)   bands (ev):

   -69.9367 -69.2299 -69.2234 -69.2197 -36.0020 -36.0012 -35.9956 -35.7823
   -35.5085 -35.4925 -35.2480 -35.2367 -35.2300 -35.1086 -35.1020 -35.0981
     2.0035   9.8386  10.1794  10.3014  14.0866  14.8128  14.9322  15.0657
    15.7096  15.9684  16.2180  16.2967  16.3759  16.5443  16.5847  16.7064
    17.4817  17.6853  17.7210  18.2221  18.2876  18.3193  19.0861  20.2690
    21.0591  21.9460

          k = 0.3333 0.4444 0.4444 ( 19737 PWs)   bands (ev):

   -69.9366 -69.2269 -69.2238 -69.2223 -36.0033 -36.0033 -35.9995 -35.7987
   -35.5003 -35.4828 -35.2519 -35.2385 -35.2378 -35.1004 -35.1001 -35.0898
     2.1818   9.7650   9.7772  10.1655  14.0868  14.8235  14.8777  14.9431
    15.8646  16.0629  16.2507  16.2626  16.4461  16.8097  16.8156  16.9888
    17.6308  17.6603  17.7493  18.2076  18.2600  18.5485  19.0738  19.6182
    20.9366  21.9306

          k = 0.4444 0.4444 0.4444 ( 19682 PWs)   bands (ev):

   -69.9366 -69.2255 -69.2238 -69.2238 -36.0055 -36.0055 -36.0041 -35.8163
   -35.4826 -35.4826 -35.2484 -35.2462 -35.2462 -35.0902 -35.0902 -35.0894
     2.3652   9.6880   9.6880   9.7163  14.0120  14.7927  14.8332  14.8332
    16.0113  16.0113  16.2626  16.2626  16.3291  17.4463  17.4463  17.4745
    17.7438  17.7438  17.9038  18.3143  18.3143  18.3170  18.9394  18.9394
    21.2439  21.2439

 ------ SPIN DOWN ----------


          k = 0.0000 0.0000 0.0000 ( 19597 PWs)   bands (ev):

   -67.3637 -67.3029 -67.3029 -66.5342 -33.9868 -33.9868 -33.9868 -33.2308
   -33.2308 -33.2308 -33.1921 -33.1921 -33.1921 -32.6396 -32.6396 -32.6396
     0.4463  11.7276  13.3948  13.3948  13.3948  15.2106  15.2106  15.5336
    15.5336  15.5336  18.0411  18.0411  18.0411  18.7046  18.7046  20.2818
    20.2818  20.2818  20.4081  20.4081  20.5092  20.8706  20.8706  20.8706
    23.0634  23.9612

          k = 0.0000 0.0000 0.1111 ( 19709 PWs)   bands (ev):

   -67.3620 -67.3045 -67.3029 -66.5343 -33.9856 -33.9856 -33.9851 -33.2312
   -33.2298 -33.2298 -33.1932 -33.1932 -33.1924 -32.6425 -32.6408 -32.6408
     0.5153  11.7585  13.0943  13.2812  13.2812  15.2705  15.3099  15.5907
    15.6867  15.6867  17.9634  18.1035  18.1035  18.7110  18.8013  20.2360
    20.2360  20.2820  20.3477  20.3645  20.4464  20.6202  20.6202  20.8706
    23.1047  23.6077

          k = 0.0000 0.0000 0.2222 ( 19717 PWs)   bands (ev):

   -67.3572 -67.3090 -67.3029 -66.5345 -33.9824 -33.9824 -33.9806 -33.2321
   -33.2272 -33.2272 -33.1960 -33.1960 -33.1933 -32.6498 -32.6439 -32.6439
     0.6980  11.5209  12.8546  13.0420  13.0420  15.3355  15.5856  15.7544
    16.0359  16.0359  17.7479  18.2772  18.2772  18.7204  18.8138  19.9887
    19.9887  20.1243  20.1428  20.2202  20.2202  20.2824  20.3765  20.8708
    23.0981  23.2964

          k = 0.0000 0.0000 0.3333 ( 19718 PWs)   bands (ev):

   -67.3504 -67.3156 -67.3028 -66.5347 -33.9789 -33.9789 -33.9756 -33.2332
   -33.2243 -33.2243 -33.1991 -33.1991 -33.1943 -32.6583 -32.6474 -32.6474
     0.9224  10.8625  12.8210  12.8210  13.2717  15.2191  15.9595  15.9955
    16.4088  16.4088  17.4486  18.5181  18.5181  18.5892  18.7025  19.4683
    19.4683  19.7687  19.8262  20.0527  20.0527  20.2830  20.3215  20.8710
    22.9355  23.5438

          k = 0.0000 0.0000 0.4444 ( 19754 PWs)   bands (ev):

   -67.3439 -67.3220 -67.3028 -66.5349 -33.9765 -33.9765 -33.9722 -33.2340
   -33.2225 -33.2225 -33.2011 -33.2011 -33.1949 -32.6638 -32.6497 -32.6497
     1.0803  10.3965  12.6955  12.6955  13.9346  14.7946  16.2271  16.2615
    16.6609  16.6609  17.1793  18.4155  18.6440  18.7636  18.7636  19.0530
    19.0530  19.4979  19.6037  19.9435  19.9435  20.2833  20.2854  20.8712
    22.9015  23.7477

          k = 0.0000 0.1111 0.1111 ( 19693 PWs)   bands (ev):

   -67.3604 -67.3052 -67.3037 -66.5343 -33.9983 -33.9844 -33.9696 -33.2352
   -33.2287 -33.2279 -33.1978 -33.1943 -33.1868 -32.6463 -32.6420 -32.6404
     0.5842  11.7907  12.8621  13.1406  13.1802  15.3466  15.3811  15.6567
    15.8146  15.8154  17.9271  18.1262  18.1578  18.7521  18.7967  20.1518
    20.1887  20.2135  20.2573  20.3571  20.4303  20.5233  20.5311  20.7748
    23.1396  23.8584

          k = 0.0000 0.1111 0.2222 ( 19721 PWs)   bands (ev):

   -67.3557 -67.3093 -67.3040 -66.5345 -34.0076 -33.9813 -33.9534 -33.2423
   -33.2261 -33.2257 -33.2011 -33.1971 -33.1817 -32.6526 -32.6451 -32.6426
     0.7671  11.5461  12.5126  12.9611  13.0784  15.4216  15.6385  15.8236
    16.1193  16.1286  17.7348  18.2827  18.2971  18.6946  18.7299  19.8200
    19.9569  19.9615  20.0877  20.2025  20.3613  20.3780  20.4819  20.7402
    23.2071  23.4012

          k = 0.0000 0.1111 0.3333 ( 19711 PWs)   bands (ev):

   -67.3490 -67.3157 -67.3040 -66.5348 -34.0133 -33.9777 -33.9399 -33.2494
   -33.2232 -33.2231 -33.2033 -33.2003 -33.1783 -32.6586 -32.6487 -32.6464
     0.9919  10.8683  12.4341  12.7536  13.4031  15.3131  16.0057  16.0654
    16.4578  16.4683  17.4442  18.3443  18.4937  18.5276  18.6583  19.4836
    19.5000  19.7219  19.8938  19.9375  20.2480  20.3630  20.3844  20.7409
    23.1202  23.4631

          k = 0.0000 0.1111 0.4444 ( 19734 PWs)   bands (ev):

   -67.3426 -67.3219 -67.3040 -66.5349 -34.0158 -33.9754 -33.9321 -33.2537
   -33.2214 -33.2212 -33.2047 -33.2023 -33.1769 -32.6620 -32.6510 -32.6493
     1.1501  10.3979  12.3630  12.6343  14.0097  14.9058  16.3025  16.3041
    16.6882  16.7031  17.1801  18.1820  18.3306  18.7856  18.7916  19.0850
    19.3044  19.5822  19.6173  19.8229  20.1431  20.3060  20.3647  20.7425
    23.1031  23.5993

          k = 0.0000 0.2222 0.2222 ( 19696 PWs)   bands (ev):

   -67.3515 -67.3111 -67.3063 -66.5347 -34.0290 -33.9783 -33.9268 -33.2584
   -33.2258 -33.2232 -33.2049 -33.1999 -33.1672 -32.6565 -32.6483 -32.6425
     0.9506  11.4992  11.8223  12.7779  13.2516  15.6150  15.7740  15.9973
    16.3297  16.3637  17.6310  18.2673  18.3695  18.5061  18.5787  19.6836
    19.7680  19.8180  19.9191  20.0933  20.4437  20.4477  20.5155  20.6849
    23.1191  23.9533

          k = 0.0000 0.2222 0.3333 ( 19683 PWs)   bands (ev):

   -67.3453 -67.3161 -67.3072 -66.5349 -34.0440 -33.9748 -33.9058 -33.2721
   -33.2256 -33.2200 -33.2091 -33.2031 -33.1560 -32.6582 -32.6520 -32.6450
     1.1763  10.8719  11.6511  12.5969  13.6634  15.5697  16.0778  16.2382
    16.5924  16.6216  17.4052  17.9795  18.2658  18.5837  18.5887  19.5184
    19.5367  19.7118  19.7453  19.8915  20.4107  20.4111  20.4839  20.6812
    23.0115  23.7344

          k = 0.0000 0.2222 0.4444 ( 19697 PWs)   bands (ev):

   -67.3391 -67.3218 -67.3074 -66.5350 -34.0517 -33.9726 -33.8941 -33.2797
   -33.2244 -33.2180 -33.2129 -33.2051 -33.1501 -32.6576 -32.6544 -32.6482
     1.3356  10.3961  11.6141  12.4903  14.2181  15.2000  16.3417  16.4883
    16.7633  16.8471  17.1757  17.7079  18.1342  18.6117  18.8660  19.1779
    19.3753  19.6218  19.6727  19.8137  20.3954  20.4157  20.4754  20.5144
    23.0489  23.6572

          k = 0.0000 0.3333 0.3333 ( 19692 PWs)   bands (ev):

   -67.3397 -67.3177 -67.3109 -66.5350 -34.0664 -33.9715 -33.8796 -33.2900
   -33.2280 -33.2165 -33.2162 -33.2063 -33.1383 -32.6559 -32.6558 -32.6452
     1.4039  10.8320  10.8970  12.4376  14.0753  15.8683  16.0259  16.4608
    16.7897  16.7990  17.2930  17.6315  18.0635  18.5078  18.7329  19.3588
    19.5305  19.5347  19.7314  19.9248  20.1459  20.5073  20.5138  20.8575
    22.5356  24.3134

          k = 0.0000 0.3333 0.4444 ( 19709 PWs)   bands (ev):

   -67.3339 -67.3217 -67.3126 -66.5351 -34.0781 -33.9694 -33.8652 -33.2997
   -33.2282 -33.2223 -33.2142 -33.2084 -33.1287 -32.6583 -32.6525 -32.6473
     1.5647  10.3853  10.8477  12.3420  14.5567  15.6032  16.2203  16.6897
    16.8595  17.0665  17.1526  17.3659  17.9798  18.4025  18.9744  19.2075
    19.2666  19.5029  19.5850  20.0348  20.0960  20.5258  20.5913  20.7763
    22.3310  24.3167

          k = 0.0000 0.4444 0.4444 ( 19706 PWs)   bands (ev):

   -67.3279 -67.3221 -67.3181 -66.5352 -34.0921 -33.9673 -33.8495 -33.3104
   -33.2304 -33.2288 -33.2117 -33.2105 -33.1171 -32.6609 -32.6488 -32.6471
     1.7270  10.3717  10.3757  12.2523  14.9224  15.9621  15.9822  16.8460
    16.9116  16.9141  17.1166  17.5507  17.9119  18.1333  19.0468  19.0621
    19.3044  19.4723  19.5335  19.7152  20.2626  20.5385  20.7785  20.8776
    21.8697  24.8266

          k = 0.1111 0.1111 0.1111 ( 19720 PWs)   bands (ev):

   -67.3588 -67.3052 -67.3052 -66.5344 -34.0116 -33.9685 -33.9685 -33.2361
   -33.2309 -33.2309 -33.1957 -33.1957 -33.1830 -32.6500 -32.6413 -32.6413
     0.6532  11.8236  12.7772  12.7772  13.1935  15.4347  15.4347  15.7978
    15.7978  15.9799  17.8993  18.1707  18.1707  18.7705  18.7705  20.0058
    20.1165  20.1422  20.1422  20.4006  20.4006  20.4020  20.6832  20.6832
    23.1810  24.0626

          k = 0.1111 0.1111 0.2222 ( 19695 PWs)   bands (ev):

   -67.3543 -67.3095 -67.3052 -66.5346 -34.0259 -33.9657 -33.9477 -33.2436
   -33.2381 -33.2288 -33.1956 -33.1929 -33.1772 -32.6558 -32.6436 -32.6431
     0.8364  11.5662  12.4035  12.5862  13.2015  15.5070  15.6956  15.9214
    16.1319  16.2323  17.7284  18.2745  18.2894  18.6801  18.6803  19.6474
    19.7883  19.9248  19.9927  20.2988  20.4492  20.4714  20.5381  20.7273
    23.2585  23.5523

          k = 0.1111 0.1111 0.3333 ( 19690 PWs)   bands (ev):

   -67.3478 -67.3158 -67.3052 -66.5348 -34.0356 -33.9625 -33.9306 -33.2517
   -33.2458 -33.2242 -33.1939 -33.1926 -33.1730 -32.6597 -32.6477 -32.6463
     1.0615  10.8680  12.3699  12.3990  13.5154  15.4058  16.0630  16.1448
    16.4745  16.5167  17.4469  18.2330  18.3236  18.6235  18.6585  19.2549
    19.5475  19.7154  19.8096  20.1300  20.3507  20.3763  20.5340  20.6671
    23.2543  23.4789

          k = 0.1111 0.1111 0.4444 ( 19726 PWs)   bands (ev):

   -67.3415 -67.3219 -67.3051 -66.5349 -34.0405 -33.9603 -33.9208 -33.2565
   -33.2505 -33.2201 -33.1941 -33.1924 -33.1708 -32.6606 -32.6523 -32.6480
     1.2201  10.3941  12.2893  12.3295  14.0812  15.0140  16.3633  16.3822
    16.6154  16.8201  17.1838  17.9896  18.2135  18.7872  18.8092  19.0182
    19.2799  19.6462  19.6873  20.0050  20.1067  20.3069  20.5544  20.6459
    23.2676  23.5689

          k = 0.1111 0.2222 0.2222 ( 19723 PWs)   bands (ev):

   -67.3502 -67.3111 -67.3075 -66.5347 -34.0489 -33.9568 -33.9261 -33.2590
   -33.2403 -33.2391 -33.1907 -33.1877 -33.1658 -32.6597 -32.6454 -32.6427
     1.0202  11.5142  11.7664  12.3870  13.3760  15.7044  15.8408  16.1110
    16.3312  16.3849  17.6415  18.2107  18.2628  18.5891  18.6017  19.4315
    19.5365  19.8335  19.8427  20.2438  20.4423  20.4845  20.7325  20.8286
    23.2303  23.9473

          k = 0.1111 0.2222 0.3333 ( 19712 PWs)   bands (ev):

   -67.3442 -67.3161 -67.3082 -66.5349 -34.0659 -33.9528 -33.9044 -33.2735
   -33.2500 -33.2381 -33.1878 -33.1854 -33.1551 -32.6607 -32.6484 -32.6447
     1.2466  10.8575  11.6116  12.2610  13.7620  15.6578  16.1554  16.3303
    16.5271  16.6653  17.4261  17.9405  18.1449  18.6006  18.6607  19.2781
    19.3044  19.7070  19.8063  20.0896  20.3804  20.4334  20.7263  20.8363
    23.1213  23.7697

          k = 0.1111 0.2222 0.4444 ( 19697 PWs)   bands (ev):

   -67.3382 -67.3218 -67.3083 -66.5350 -34.0747 -33.9506 -33.8920 -33.2816
   -33.2558 -33.2369 -33.1861 -33.1853 -33.1493 -32.6579 -32.6529 -32.6466
     1.4064  10.3801  11.5687  12.1836  14.2830  15.2975  16.4053  16.5686
    16.6593  16.9776  17.1955  17.6108  18.0537  18.6267  18.8410  19.0777
    19.1792  19.7031  19.8060  19.9540  20.3196  20.3830  20.4880  20.8720
    23.1471  23.7263

          k = 0.1111 0.3333 0.3333 ( 19679 PWs)   bands (ev):

   -67.3388 -67.3177 -67.3117 -66.5350 -34.0890 -33.9484 -33.8792 -33.2923
   -33.2527 -33.2492 -33.1848 -33.1830 -33.1380 -32.6596 -32.6496 -32.6445
     1.4751  10.8124  10.8547  12.1297  14.1547  15.9504  16.0732  16.5539
    16.6811  16.8732  17.3268  17.6478  17.9842  18.5073  18.7405  19.0987
    19.3924  19.5426  19.9239  19.9249  20.2617  20.4112  20.8984  20.9779
    22.5960  24.2110

          k = 0.1111 0.3333 0.4444 ( 19708 PWs)   bands (ev):

   -67.3332 -67.3217 -67.3132 -66.5351 -34.1013 -33.9461 -33.8648 -33.3024
   -33.2585 -33.2516 -33.1833 -33.1825 -33.1286 -32.6577 -32.6501 -32.6459
     1.6368  10.3568  10.8091  12.0487  14.6042  15.6784  16.2441  16.7773
    16.8627  17.0624  17.1774  17.4109  17.9283  18.4037  18.8155  18.9913
    19.3558  19.5850  19.7344  19.9965  20.1409  20.5094  20.7320  21.0729
    22.3520  24.2447

          k = 0.1111 0.4444 0.4444 ( 19702 PWs)   bands (ev):

   -67.3276 -67.3221 -67.3183 -66.5352 -34.1156 -33.9438 -33.8495 -33.3135
   -33.2606 -33.2599 -33.1820 -33.1817 -33.1171 -32.6582 -32.6472 -32.6459
     1.8002  10.3372  10.3387  11.9662  14.9331  15.9994  16.0392  16.8468
    16.9393  17.0014  17.1564  17.6199  17.8810  18.1382  18.6867  19.0343
    19.4389  19.5800  19.6275  19.9199  19.9909  20.7271  20.8654  21.1311
    21.8235  24.5855

          k = 0.2222 0.2222 0.2222 ( 19684 PWs)   bands (ev):

   -67.3465 -67.3110 -67.3110 -66.5348 -34.0777 -33.9241 -33.9241 -33.2614
   -33.2614 -33.2587 -33.1747 -33.1747 -33.1599 -32.6627 -32.6431 -32.6431
     1.2053  11.5057  11.6333  11.6333  13.6117  15.9656  15.9656  16.3811
    16.3961  16.3961  17.6134  18.0860  18.0860  18.6336  18.6336  19.2216
    19.2255  19.7409  19.7409  20.3382  20.4371  20.4371  21.0801  21.0801
    23.3972  23.8154

          k = 0.2222 0.2222 0.3333 ( 19712 PWs)   bands (ev):

   -67.3410 -67.3163 -67.3110 -66.5350 -34.0997 -33.9218 -33.8974 -33.2785
   -33.2761 -33.2616 -33.1697 -33.1642 -33.1503 -32.6617 -32.6447 -32.6436
     1.4337  10.8143  11.4942  11.5403  14.0010  15.8917  16.3473  16.3801
    16.5659  16.7438  17.4589  17.8193  17.9647  18.6057  18.6850  18.9745
    19.2132  19.6809  19.7893  20.2384  20.3908  20.4169  20.9558  21.2855
    23.3373  23.6138

          k = 0.2222 0.2222 0.4444 ( 19704 PWs)   bands (ev):

   -67.3355 -67.3217 -67.3110 -66.5351 -34.1114 -33.9203 -33.8827 -33.2879
   -33.2848 -33.2626 -33.1679 -33.1594 -33.1443 -32.6572 -32.6494 -32.6439
     1.5953  10.3373  11.4092  11.5220  14.4637  15.5468  16.4097  16.6962
    16.7870  17.0773  17.2509  17.4545  17.9243  18.6154  18.7202  18.7986
    19.2516  19.7833  19.8994  20.1210  20.3448  20.3568  20.5389  21.3918
    23.3747  23.4640

          k = 0.2222 0.3333 0.3333 ( 19696 PWs)   bands (ev):

   -67.3363 -67.3177 -67.3141 -66.5351 -34.1265 -33.9094 -33.8783 -33.2983
   -33.2827 -33.2788 -33.1587 -33.1569 -33.1371 -32.6591 -32.6437 -32.6427
     1.6652  10.7518  10.7598  11.4197  14.3573  16.1251  16.1725  16.5859
    16.7955  16.9206  17.4225  17.6826  17.8430  18.5147  18.6475  18.7609
    19.3525  19.6421  19.8904  20.1762  20.3802  20.3974  21.0669  21.4860
    22.7513  23.7078

          k = 0.2222 0.3333 0.4444 ( 19699 PWs)   bands (ev):

   -67.3314 -67.3216 -67.3150 -66.5351 -34.1410 -33.9065 -33.8636 -33.3094
   -33.2914 -33.2832 -33.1564 -33.1522 -33.1281 -32.6546 -32.6455 -32.6424
     1.8295  10.2853  10.7138  11.3580  14.7230  15.8567  16.2686  16.8383
    17.0106  17.0608  17.3086  17.5571  17.8458  18.4190  18.5336  18.7260
    19.4678  19.7472  19.9624  20.0610  20.3210  20.4542  20.7321  21.6895
    22.3541  23.6880

          k = 0.2222 0.4444 0.4444 ( 19709 PWs)   bands (ev):

   -67.3267 -67.3220 -67.3192 -66.5351 -34.1570 -33.9026 -33.8493 -33.3214
   -33.2952 -33.2945 -33.1509 -33.1507 -33.1170 -32.6516 -32.6431 -32.6426
     1.9961  10.2479  10.2520  11.2850  14.9443  16.0836  16.1699  16.6778
    17.2033  17.2398  17.3383  17.7452  17.8432  18.1948  18.3674  18.7274
    19.6940  19.7349  19.8891  19.9598  20.2298  20.6464  20.8149  21.6135
    21.8564  23.8902

          k = 0.3333 0.3333 0.3333 ( 19748 PWs)   bands (ev):

   -67.3326 -67.3176 -67.3176 -66.5351 -34.1571 -33.8772 -33.8772 -33.3060
   -33.3060 -33.3001 -33.1406 -33.1406 -33.1335 -32.6547 -32.6407 -32.6407
     1.9013  10.6410  10.6410  10.7351  14.6291  16.0838  16.4465  16.4465
    17.0957  17.0957  17.5101  17.7472  17.7472  18.4505  18.5255  18.5255
    19.5064  19.8514  19.8514  20.2896  20.3761  20.3761  21.3675  21.3675
    22.9689  22.9689

          k = 0.3333 0.3333 0.4444 ( 19752 PWs)   bands (ev):

   -67.3286 -67.3216 -67.3176 -66.5351 -34.1738 -33.8765 -33.8595 -33.3187
   -33.3147 -33.3077 -33.1379 -33.1315 -33.1258 -32.6492 -32.6413 -32.6393
     2.0695  10.2050  10.5719  10.6655  14.8542  16.0352  16.2875  16.6327
    17.3154  17.3326  17.5108  17.7316  17.8242  18.2898  18.4213  18.5172
    19.6667  19.9042  20.0203  20.2100  20.3906  20.4082  20.7760  21.7175
    22.3422  23.1530

          k = 0.3333 0.4444 0.4444 ( 19737 PWs)   bands (ev):

   -67.3253 -67.3220 -67.3204 -66.5351 -34.1918 -33.8680 -33.8491 -33.3302
   -33.3217 -33.3208 -33.1287 -33.1283 -33.1168 -32.6440 -32.6389 -32.6387
     2.2410  10.1490  10.1585  10.5577  14.9331  16.1686  16.2822  16.4794
    17.5926  17.5995  17.6672  17.8602  17.8665  18.1335  18.3001  18.4925
    19.8639  19.9512  20.0417  20.1415  20.4198  20.4853  20.7228  21.2312
    22.3661  23.1196

          k = 0.4444 0.4444 0.4444 ( 19682 PWs)   bands (ev):

   -67.3238 -67.3220 -67.3220 -66.5351 -34.2109 -33.8490 -33.8490 -33.3360
   -33.3360 -33.3349 -33.1172 -33.1172 -33.1163 -32.6385 -32.6365 -32.6365
     2.4168  10.0868  10.0868  10.1094  14.9149  16.2386  16.3299  16.3299
    17.8949  17.8949  17.9810  17.9810  17.9853  18.0023  18.3664  18.3664
    20.0132  20.0711  20.0711  20.2605  20.3447  20.3447  20.7349  20.7349
    22.6688  22.6688

     the Fermi energy is    18.7318 ev

!    total energy              =   -1345.17150508 Ry
     Harris-Foulkes estimate   =   -1345.17150508 Ry
     estimated scf accuracy    <          3.7E-09 Ry

     total all-electron energy =    -10291.773140 Ry

     The total energy is the sum of the following terms:

     one-electron contribution =    -446.73808858 Ry
     hartree contribution      =     269.20289645 Ry
     xc contribution           =    -117.08745001 Ry
     ewald contribution        =    -711.61403732 Ry
     one-center paw contrib.   =    -338.93491632 Ry
     smearing contrib. (-TS)   =       0.00009070 Ry

     total magnetization       =     7.68 Bohr mag/cell
     absolute magnetization    =     8.03 Bohr mag/cell

     convergence has been achieved in  27 iterations

     Forces acting on atoms (Ry/au):


     negative rho (up, down):  0.000E+00 2.069E-04
     atom    1 type  1   force =     0.00000000    0.00000000    0.00000000
     atom    2 type  1   force =     0.00000000    0.00000000    0.00000000
     atom    3 type  1   force =     0.00000000    0.00000000    0.00000000
     atom    4 type  1   force =     0.00000000    0.00000000    0.00000000
     atom    5 type  2   force =     0.00000000    0.00000000    0.00000000

     Total force =     0.000000     Total SCF correction =     0.000000


     entering subroutine stress ...


     negative rho (up, down):  0.000E+00 2.069E-04
          total   stress  (Ry/bohr**3)                   (kbar)     P=  150.57
   0.00102353   0.00000000   0.00000000        150.57      0.00      0.00
   0.00000000   0.00102353   0.00000000          0.00    150.57      0.00
   0.00000000   0.00000000   0.00102353          0.00      0.00    150.57


     Writing output data file config.save
 
     init_run     :     12.41s CPU     12.73s WALL (       1 calls)
     electrons    :    944.54s CPU    953.61s WALL (       1 calls)
     forces       :      2.55s CPU      2.62s WALL (       1 calls)
     stress       :     14.01s CPU     14.36s WALL (       1 calls)

     Called by init_run:
     wfcinit      :     10.84s CPU     11.02s WALL (       1 calls)
     potinit      :      0.65s CPU      0.68s WALL (       1 calls)

     Called by electrons:
     c_bands      :    728.25s CPU    732.65s WALL (      27 calls)
     sum_band     :    192.42s CPU    195.18s WALL (      27 calls)
     v_of_rho     :      6.13s CPU      6.18s WALL (      28 calls)
     newd         :      6.95s CPU      8.10s WALL (      28 calls)
     mix_rho      :      1.59s CPU      1.61s WALL (      27 calls)

     Called by c_bands:
     init_us_2    :     13.02s CPU     13.22s WALL (    3990 calls)
     cegterg      :    686.05s CPU    689.87s WALL (    1890 calls)

     Called by sum_band:
     sum_band:bec :      0.06s CPU      0.06s WALL (    1890 calls)
     addusdens    :     17.52s CPU     19.26s WALL (      27 calls)

     Called by *egterg:
     h_psi        :    553.11s CPU    556.32s WALL (    6521 calls)
     s_psi        :     19.43s CPU     19.52s WALL (    6521 calls)
     g_psi        :      3.10s CPU      3.11s WALL (    4561 calls)
     cdiaghg      :     18.05s CPU     18.15s WALL (    6451 calls)

     Called by h_psi:
     add_vuspsi   :     18.05s CPU     18.16s WALL (    6521 calls)

     General routines
     calbec       :     26.16s CPU     26.40s WALL (    8761 calls)
     fft          :      4.01s CPU      4.05s WALL (     902 calls)
     ffts         :      0.15s CPU      0.15s WALL (     110 calls)
     fftw         :    475.64s CPU    478.51s WALL (  452644 calls)
     interpolate  :      0.89s CPU      0.89s WALL (     110 calls)
     davcio       :      0.13s CPU      2.37s WALL (      70 calls)
 
     Parallel routines
     fft_scatter  :    233.92s CPU    235.38s WALL (  453656 calls)

     PAW routines
     PAW_pot      :      9.22s CPU      9.77s WALL (      28 calls)
     PAW_symme    :      0.04s CPU      0.04s WALL (      55 calls)
 
     PWSCF        : 16m14.61s CPU    16m27.30s WALL

 
   This run was terminated on:   1:56:14  27Oct2020            

=------------------------------------------------------------------------------=
   JOB DONE.
=------------------------------------------------------------------------------=
