
     Program PWSCF v.5.2.0 starts on 27Oct2020 at  1:57:49 

     This program is part of the open-source Quantum ESPRESSO suite
     for quantum simulation of materials; please cite
         "P. Giannozzi et al., J. Phys.:Condens. Matter 21 395502 (2009);
          URL http://www.quantum-espresso.org", 
     in publications or presentations arising from this work. More details at
     http://www.quantum-espresso.org/quote

     Parallel version (MPI), running on     6 processors
     R & G space division:  proc/nbgrp/npool/nimage =       6
     Reading input from 19.in

     Current dimensions of program PWSCF are:
     Max number of different atomic species (ntypx) = 10
     Max number of k-points (npk) =  40000
     Max angular momentum in pseudopotentials (lmaxx) =  3

     IMPORTANT: XC functional enforced from input :
     Exchange-correlation      = PBE ( 1  4  3  4 0 0)
     Any further DFT definition will be discarded
     Please, verify this is what you really want

               file Fe_PSEUDO: wavefunction(s)  3P 3D renormalized
               file N_PSEUDO: wavefunction(s)  2S renormalized

     Subspace diagonalization in iterative solution of the eigenvalue problem:
     a serial algorithm will be used

 
     Parallelization info
     --------------------
     sticks:   dense  smooth     PW     G-vecs:    dense   smooth      PW
     Min         918     616    166                51450    28000    3974
     Max         919     617    167                51453    28024    3977
     Sum        5513    3697    997               308707   168069   23847
 
     Generating pointlists ...
     new r_m :   0.2063 (alat units)  1.4318 (a.u.) for type    1
     new r_m :   0.2063 (alat units)  1.4318 (a.u.) for type    2


     bravais-lattice index     =            0
     lattice parameter (alat)  =       6.9422  a.u.
     unit-cell volume          =     334.5777 (a.u.)^3
     number of atoms/cell      =            5
     number of atomic types    =            2
     number of electrons       =        69.00
     number of Kohn-Sham states=           42
     kinetic-energy cutoff     =     240.0000  Ry
     charge density cutoff     =    1440.0000  Ry
     convergence threshold     =      1.0E-08
     mixing beta               =       0.7000
     number of iterations used =            8  plain     mixing
     Exchange-correlation      = PBE ( 1  4  3  4 0 0)

     celldm(1)=   6.942230  celldm(2)=   0.000000  celldm(3)=   0.000000
     celldm(4)=   0.000000  celldm(5)=   0.000000  celldm(6)=   0.000000

     crystal axes: (cart. coord. in units of alat)
               a(1) = (   1.000000   0.000000   0.000000 )  
               a(2) = (   0.000000   1.000000   0.000000 )  
               a(3) = (   0.000000   0.000000   1.000000 )  

     reciprocal axes: (cart. coord. in units 2 pi/alat)
               b(1) = (  1.000000  0.000000  0.000000 )  
               b(2) = (  0.000000  1.000000  0.000000 )  
               b(3) = (  0.000000  0.000000  1.000000 )  


     PseudoPot. # 1 for Fe read from file:
     pseudo/Fe_PSEUDO
     MD5 check sum: e30d5f36a6f0cb983ee41abee56170da
     Pseudo is Projector augmented-wave + core cor, Zval = 16.0
     Generated using "atomic" code by A. Dal Corso  v.6.3
     Shape of augmentation charge: PSQ
     Using radial grid of 1191 points,  6 beta functions with: 
                l(1) =   0
                l(2) =   0
                l(3) =   1
                l(4) =   1
                l(5) =   2
                l(6) =   2
     Q(r) pseudized with 0 coefficients 


     PseudoPot. # 2 for  N read from file:
     pseudo/N_PSEUDO
     MD5 check sum: 14c48229446f9f2d411169a3abcbc3fa
     Pseudo is Projector augmented-wave + core cor, Zval =  5.0
     Generated using "atomic" code by A. Dal Corso  v.6.3
     Shape of augmentation charge: PSQ
     Using radial grid of 1085 points,  4 beta functions with: 
                l(1) =   0
                l(2) =   0
                l(3) =   1
                l(4) =   1
     Q(r) pseudized with 0 coefficients 


     atomic species   valence    mass     pseudopotential
        Fe            16.00    55.84500     Fe( 1.00)
        N              5.00    14.00650      N( 1.00)

     Starting magnetic structure 
     atomic species   magnetization
        Fe           0.500
        N           -0.010

     48 Sym. Ops., with inversion, found



   Cartesian axes

     site n.     atom                  positions (alat units)
         1           Fe  tau(   1) = (   0.0000000   0.5000000   0.5000000  )
         2           Fe  tau(   2) = (   0.5000000   0.5000000   0.0000000  )
         3           Fe  tau(   3) = (   0.5000000   0.0000000   0.5000000  )
         4           Fe  tau(   4) = (   0.0000000   0.0000000   0.0000000  )
         5           N   tau(   5) = (   0.5000000   0.5000000   0.5000000  )

     number of k points=    70  Marzari-Vanderbilt smearing, width (Ry)=  0.0050
                       cart. coord. in units 2pi/alat
        k(    1) = (   0.0000000   0.0000000   0.0000000), wk =   0.0013717
        k(    2) = (   0.0000000   0.0000000   0.1111111), wk =   0.0082305
        k(    3) = (   0.0000000   0.0000000   0.2222222), wk =   0.0082305
        k(    4) = (   0.0000000   0.0000000   0.3333333), wk =   0.0082305
        k(    5) = (   0.0000000   0.0000000   0.4444444), wk =   0.0082305
        k(    6) = (   0.0000000   0.1111111   0.1111111), wk =   0.0164609
        k(    7) = (   0.0000000   0.1111111   0.2222222), wk =   0.0329218
        k(    8) = (   0.0000000   0.1111111   0.3333333), wk =   0.0329218
        k(    9) = (   0.0000000   0.1111111   0.4444444), wk =   0.0329218
        k(   10) = (   0.0000000   0.2222222   0.2222222), wk =   0.0164609
        k(   11) = (   0.0000000   0.2222222   0.3333333), wk =   0.0329218
        k(   12) = (   0.0000000   0.2222222   0.4444444), wk =   0.0329218
        k(   13) = (   0.0000000   0.3333333   0.3333333), wk =   0.0164609
        k(   14) = (   0.0000000   0.3333333   0.4444444), wk =   0.0329218
        k(   15) = (   0.0000000   0.4444444   0.4444444), wk =   0.0164609
        k(   16) = (   0.1111111   0.1111111   0.1111111), wk =   0.0109739
        k(   17) = (   0.1111111   0.1111111   0.2222222), wk =   0.0329218
        k(   18) = (   0.1111111   0.1111111   0.3333333), wk =   0.0329218
        k(   19) = (   0.1111111   0.1111111   0.4444444), wk =   0.0329218
        k(   20) = (   0.1111111   0.2222222   0.2222222), wk =   0.0329218
        k(   21) = (   0.1111111   0.2222222   0.3333333), wk =   0.0658436
        k(   22) = (   0.1111111   0.2222222   0.4444444), wk =   0.0658436
        k(   23) = (   0.1111111   0.3333333   0.3333333), wk =   0.0329218
        k(   24) = (   0.1111111   0.3333333   0.4444444), wk =   0.0658436
        k(   25) = (   0.1111111   0.4444444   0.4444444), wk =   0.0329218
        k(   26) = (   0.2222222   0.2222222   0.2222222), wk =   0.0109739
        k(   27) = (   0.2222222   0.2222222   0.3333333), wk =   0.0329218
        k(   28) = (   0.2222222   0.2222222   0.4444444), wk =   0.0329218
        k(   29) = (   0.2222222   0.3333333   0.3333333), wk =   0.0329218
        k(   30) = (   0.2222222   0.3333333   0.4444444), wk =   0.0658436
        k(   31) = (   0.2222222   0.4444444   0.4444444), wk =   0.0329218
        k(   32) = (   0.3333333   0.3333333   0.3333333), wk =   0.0109739
        k(   33) = (   0.3333333   0.3333333   0.4444444), wk =   0.0329218
        k(   34) = (   0.3333333   0.4444444   0.4444444), wk =   0.0329218
        k(   35) = (   0.4444444   0.4444444   0.4444444), wk =   0.0109739
        k(   36) = (   0.0000000   0.0000000   0.0000000), wk =   0.0013717
        k(   37) = (   0.0000000   0.0000000   0.1111111), wk =   0.0082305
        k(   38) = (   0.0000000   0.0000000   0.2222222), wk =   0.0082305
        k(   39) = (   0.0000000   0.0000000   0.3333333), wk =   0.0082305
        k(   40) = (   0.0000000   0.0000000   0.4444444), wk =   0.0082305
        k(   41) = (   0.0000000   0.1111111   0.1111111), wk =   0.0164609
        k(   42) = (   0.0000000   0.1111111   0.2222222), wk =   0.0329218
        k(   43) = (   0.0000000   0.1111111   0.3333333), wk =   0.0329218
        k(   44) = (   0.0000000   0.1111111   0.4444444), wk =   0.0329218
        k(   45) = (   0.0000000   0.2222222   0.2222222), wk =   0.0164609
        k(   46) = (   0.0000000   0.2222222   0.3333333), wk =   0.0329218
        k(   47) = (   0.0000000   0.2222222   0.4444444), wk =   0.0329218
        k(   48) = (   0.0000000   0.3333333   0.3333333), wk =   0.0164609
        k(   49) = (   0.0000000   0.3333333   0.4444444), wk =   0.0329218
        k(   50) = (   0.0000000   0.4444444   0.4444444), wk =   0.0164609
        k(   51) = (   0.1111111   0.1111111   0.1111111), wk =   0.0109739
        k(   52) = (   0.1111111   0.1111111   0.2222222), wk =   0.0329218
        k(   53) = (   0.1111111   0.1111111   0.3333333), wk =   0.0329218
        k(   54) = (   0.1111111   0.1111111   0.4444444), wk =   0.0329218
        k(   55) = (   0.1111111   0.2222222   0.2222222), wk =   0.0329218
        k(   56) = (   0.1111111   0.2222222   0.3333333), wk =   0.0658436
        k(   57) = (   0.1111111   0.2222222   0.4444444), wk =   0.0658436
        k(   58) = (   0.1111111   0.3333333   0.3333333), wk =   0.0329218
        k(   59) = (   0.1111111   0.3333333   0.4444444), wk =   0.0658436
        k(   60) = (   0.1111111   0.4444444   0.4444444), wk =   0.0329218
        k(   61) = (   0.2222222   0.2222222   0.2222222), wk =   0.0109739
        k(   62) = (   0.2222222   0.2222222   0.3333333), wk =   0.0329218
        k(   63) = (   0.2222222   0.2222222   0.4444444), wk =   0.0329218
        k(   64) = (   0.2222222   0.3333333   0.3333333), wk =   0.0329218
        k(   65) = (   0.2222222   0.3333333   0.4444444), wk =   0.0658436
        k(   66) = (   0.2222222   0.4444444   0.4444444), wk =   0.0329218
        k(   67) = (   0.3333333   0.3333333   0.3333333), wk =   0.0109739
        k(   68) = (   0.3333333   0.3333333   0.4444444), wk =   0.0329218
        k(   69) = (   0.3333333   0.4444444   0.4444444), wk =   0.0329218
        k(   70) = (   0.4444444   0.4444444   0.4444444), wk =   0.0109739

     Dense  grid:   308707 G-vectors     FFT dimensions: (  90,  90,  90)

     Smooth grid:   168069 G-vectors     FFT dimensions: (  72,  72,  72)

     Largest allocated arrays     est. size (Mb)     dimensions
        Kohn-Sham Wavefunctions         2.27 Mb     (    3543,   42)
        NL pseudopotentials             4.32 Mb     (    3543,   80)
        Each V/rho on FFT grid          3.71 Mb     (  121500,   2)
        Each G-vector array             0.39 Mb     (   51453)
        G-vector shells                 0.01 Mb     (    1467)
     Largest temporary arrays     est. size (Mb)     dimensions
        Auxiliary wavefunctions         9.08 Mb     (    3543,  168)
        Each subspace H/S matrix        0.43 Mb     (     168,  168)
        Each <psi_i|beta_j> matrix      0.05 Mb     (      80,   42)
        Arrays for rho mixing          14.83 Mb     (  121500,    8)

     Initial potential from superposition of free atoms

     starting charge   68.99837, renormalised to   69.00000
     Starting wfc are   44 randomized atomic wfcs
     Checking if some PAW data can be deallocated... 

     total cpu time spent up to now is       13.8 secs

     per-process dynamical memory:   237.8 Mb

     Self-consistent Calculation

     iteration #  1     ecut=   240.00 Ry     beta=0.70
     Davidson diagonalization with overlap
     ethr =  1.00E-02,  avg # of iterations =  3.1

     negative rho (up, down):  0.000E+00 4.387E-04
 
     Magnetic moment per site:
     atom:    1    charge:   12.7333    magn:    4.0982    constr:    0.0000
     atom:    2    charge:   12.7333    magn:    4.0982    constr:    0.0000
     atom:    3    charge:   12.7333    magn:    4.0982    constr:    0.0000
     atom:    4    charge:   12.6138    magn:    4.1674    constr:    0.0000
     atom:    5    charge:    4.6359    magn:    0.1186    constr:    0.0000

     total cpu time spent up to now is       52.3 secs

     total energy              =   -1344.14443031 Ry
     Harris-Foulkes estimate   =   -1343.44712512 Ry
     estimated scf accuracy    <       2.86595159 Ry

     total magnetization       =    13.88 Bohr mag/cell
     absolute magnetization    =    14.06 Bohr mag/cell

     iteration #  2     ecut=   240.00 Ry     beta=0.70
     Davidson diagonalization with overlap
     ethr =  4.15E-03,  avg # of iterations =  3.3

     negative rho (up, down):  0.000E+00 3.989E-04
 
     Magnetic moment per site:
     atom:    1    charge:   12.7243    magn:    3.8174    constr:    0.0000
     atom:    2    charge:   12.7243    magn:    3.8174    constr:    0.0000
     atom:    3    charge:   12.7243    magn:    3.8174    constr:    0.0000
     atom:    4    charge:   13.0650    magn:    3.5710    constr:    0.0000
     atom:    5    charge:    4.2263    magn:    0.0573    constr:    0.0000

     total cpu time spent up to now is       90.8 secs

     total energy              =   -1343.30173089 Ry
     Harris-Foulkes estimate   =   -1345.75067086 Ry
     estimated scf accuracy    <       8.52038431 Ry

     total magnetization       =     9.38 Bohr mag/cell
     absolute magnetization    =    10.50 Bohr mag/cell

     iteration #  3     ecut=   240.00 Ry     beta=0.70
     Davidson diagonalization with overlap
     ethr =  4.15E-03,  avg # of iterations =  3.5

     negative rho (up, down):  0.000E+00 1.318E-04
 
     Magnetic moment per site:
     atom:    1    charge:   12.8850    magn:    3.4485    constr:    0.0000
     atom:    2    charge:   12.8850    magn:    3.4485    constr:    0.0000
     atom:    3    charge:   12.8850    magn:    3.4485    constr:    0.0000
     atom:    4    charge:   12.8123    magn:    3.0188    constr:    0.0000
     atom:    5    charge:    4.0302    magn:    0.0243    constr:    0.0000

     total cpu time spent up to now is      130.2 secs

     total energy              =   -1343.62344247 Ry
     Harris-Foulkes estimate   =   -1346.18900366 Ry
     estimated scf accuracy    <      25.50770822 Ry

     total magnetization       =     3.80 Bohr mag/cell
     absolute magnetization    =     4.51 Bohr mag/cell

     iteration #  4     ecut=   240.00 Ry     beta=0.70
     Davidson diagonalization with overlap
     ethr =  4.15E-03,  avg # of iterations =  3.2

     negative rho (up, down):  0.000E+00 6.242E-04
 
     Magnetic moment per site:
     atom:    1    charge:   12.7744    magn:    2.2622    constr:    0.0000
     atom:    2    charge:   12.7744    magn:    2.2622    constr:    0.0000
     atom:    3    charge:   12.7744    magn:    2.2622    constr:    0.0000
     atom:    4    charge:   12.7287    magn:    1.8787    constr:    0.0000
     atom:    5    charge:    4.0532    magn:   -0.0487    constr:    0.0000

     total cpu time spent up to now is      168.1 secs

     total energy              =   -1345.03029102 Ry
     Harris-Foulkes estimate   =   -1345.10772316 Ry
     estimated scf accuracy    <       0.54805426 Ry

     total magnetization       =    10.75 Bohr mag/cell
     absolute magnetization    =    11.16 Bohr mag/cell

     iteration #  5     ecut=   240.00 Ry     beta=0.70
     Davidson diagonalization with overlap
     ethr =  7.94E-04,  avg # of iterations =  3.3

     negative rho (up, down):  0.000E+00 4.038E-04
 
     Magnetic moment per site:
     atom:    1    charge:   12.8333    magn:    2.1626    constr:    0.0000
     atom:    2    charge:   12.8333    magn:    2.1626    constr:    0.0000
     atom:    3    charge:   12.8333    magn:    2.1626    constr:    0.0000
     atom:    4    charge:   12.8042    magn:    2.0422    constr:    0.0000
     atom:    5    charge:    4.1100    magn:   -0.0268    constr:    0.0000

     total cpu time spent up to now is      209.0 secs

     total energy              =   -1345.11570089 Ry
     Harris-Foulkes estimate   =   -1345.20301993 Ry
     estimated scf accuracy    <       0.24135542 Ry

     total magnetization       =     9.59 Bohr mag/cell
     absolute magnetization    =     9.95 Bohr mag/cell

     iteration #  6     ecut=   240.00 Ry     beta=0.70
     Davidson diagonalization with overlap
     ethr =  3.50E-04,  avg # of iterations =  3.0

     negative rho (up, down):  0.000E+00 2.553E-04
 
     Magnetic moment per site:
     atom:    1    charge:   12.8271    magn:    2.1147    constr:    0.0000
     atom:    2    charge:   12.8271    magn:    2.1147    constr:    0.0000
     atom:    3    charge:   12.8271    magn:    2.1147    constr:    0.0000
     atom:    4    charge:   12.7932    magn:    2.3702    constr:    0.0000
     atom:    5    charge:    4.1120    magn:    0.0064    constr:    0.0000

     total cpu time spent up to now is      247.2 secs

     total energy              =   -1345.16249390 Ry
     Harris-Foulkes estimate   =   -1345.15826301 Ry
     estimated scf accuracy    <       0.02600673 Ry

     total magnetization       =     9.38 Bohr mag/cell
     absolute magnetization    =     9.72 Bohr mag/cell

     iteration #  7     ecut=   240.00 Ry     beta=0.70
     Davidson diagonalization with overlap
     ethr =  3.77E-05,  avg # of iterations =  1.7

     negative rho (up, down):  0.000E+00 3.185E-04
 
     Magnetic moment per site:
     atom:    1    charge:   12.8278    magn:    1.9572    constr:    0.0000
     atom:    2    charge:   12.8278    magn:    1.9572    constr:    0.0000
     atom:    3    charge:   12.8278    magn:    1.9572    constr:    0.0000
     atom:    4    charge:   12.7728    magn:    2.8106    constr:    0.0000
     atom:    5    charge:    4.1113    magn:    0.0392    constr:    0.0000

     total cpu time spent up to now is      280.3 secs

     total energy              =   -1345.16237135 Ry
     Harris-Foulkes estimate   =   -1345.16426054 Ry
     estimated scf accuracy    <       0.01803580 Ry

     total magnetization       =     9.38 Bohr mag/cell
     absolute magnetization    =     9.71 Bohr mag/cell

     iteration #  8     ecut=   240.00 Ry     beta=0.70
     Davidson diagonalization with overlap
     ethr =  2.61E-05,  avg # of iterations =  2.2

     negative rho (up, down):  0.000E+00 3.096E-04
 
     Magnetic moment per site:
     atom:    1    charge:   12.8309    magn:    1.8626    constr:    0.0000
     atom:    2    charge:   12.8309    magn:    1.8626    constr:    0.0000
     atom:    3    charge:   12.8309    magn:    1.8626    constr:    0.0000
     atom:    4    charge:   12.7753    magn:    2.7251    constr:    0.0000
     atom:    5    charge:    4.1091    magn:    0.0310    constr:    0.0000

     total cpu time spent up to now is      315.8 secs

     total energy              =   -1345.16739777 Ry
     Harris-Foulkes estimate   =   -1345.16642232 Ry
     estimated scf accuracy    <       0.00209009 Ry

     total magnetization       =     9.00 Bohr mag/cell
     absolute magnetization    =     9.35 Bohr mag/cell

     iteration #  9     ecut=   240.00 Ry     beta=0.70
     Davidson diagonalization with overlap
     ethr =  3.03E-06,  avg # of iterations =  2.1

     negative rho (up, down):  0.000E+00 3.323E-04
 
     Magnetic moment per site:
     atom:    1    charge:   12.8288    magn:    1.9947    constr:    0.0000
     atom:    2    charge:   12.8288    magn:    1.9947    constr:    0.0000
     atom:    3    charge:   12.8288    magn:    1.9947    constr:    0.0000
     atom:    4    charge:   12.7742    magn:    2.7578    constr:    0.0000
     atom:    5    charge:    4.1139    magn:    0.0386    constr:    0.0000

     total cpu time spent up to now is      349.5 secs

     total energy              =   -1345.16486281 Ry
     Harris-Foulkes estimate   =   -1345.16821806 Ry
     estimated scf accuracy    <       0.00202043 Ry

     total magnetization       =     8.59 Bohr mag/cell
     absolute magnetization    =     8.97 Bohr mag/cell

     iteration # 10     ecut=   240.00 Ry     beta=0.70
     Davidson diagonalization with overlap
     ethr =  2.93E-06,  avg # of iterations =  1.9

     negative rho (up, down):  0.000E+00 3.454E-04
 
     Magnetic moment per site:
     atom:    1    charge:   12.8274    magn:    2.0790    constr:    0.0000
     atom:    2    charge:   12.8274    magn:    2.0790    constr:    0.0000
     atom:    3    charge:   12.8274    magn:    2.0790    constr:    0.0000
     atom:    4    charge:   12.7753    magn:    2.7410    constr:    0.0000
     atom:    5    charge:    4.1174    magn:    0.0452    constr:    0.0000

     total cpu time spent up to now is      382.8 secs

     total energy              =   -1345.16463609 Ry
     Harris-Foulkes estimate   =   -1345.16629386 Ry
     estimated scf accuracy    <       0.00219337 Ry

     total magnetization       =     9.10 Bohr mag/cell
     absolute magnetization    =     9.44 Bohr mag/cell

     iteration # 11     ecut=   240.00 Ry     beta=0.70
     Davidson diagonalization with overlap
     ethr =  2.93E-06,  avg # of iterations =  1.7

     negative rho (up, down):  0.000E+00 2.679E-04
 
     Magnetic moment per site:
     atom:    1    charge:   12.8342    magn:    1.7216    constr:    0.0000
     atom:    2    charge:   12.8342    magn:    1.7216    constr:    0.0000
     atom:    3    charge:   12.8342    magn:    1.7216    constr:    0.0000
     atom:    4    charge:   12.7752    magn:    2.6961    constr:    0.0000
     atom:    5    charge:    4.1042    magn:    0.0139    constr:    0.0000

     total cpu time spent up to now is      416.1 secs

     total energy              =   -1345.16110952 Ry
     Harris-Foulkes estimate   =   -1345.16513126 Ry
     estimated scf accuracy    <       0.00283469 Ry

     total magnetization       =     9.33 Bohr mag/cell
     absolute magnetization    =     9.66 Bohr mag/cell

     iteration # 12     ecut=   240.00 Ry     beta=0.70
     Davidson diagonalization with overlap
     ethr =  2.93E-06,  avg # of iterations =  3.1

     negative rho (up, down):  0.000E+00 1.909E-04
 
     Magnetic moment per site:
     atom:    1    charge:   12.8414    magn:    1.3187    constr:    0.0000
     atom:    2    charge:   12.8414    magn:    1.3187    constr:    0.0000
     atom:    3    charge:   12.8414    magn:    1.3187    constr:    0.0000
     atom:    4    charge:   12.7744    magn:    2.6497    constr:    0.0000
     atom:    5    charge:    4.0882    magn:   -0.0226    constr:    0.0000

     total cpu time spent up to now is      458.0 secs

     total energy              =   -1345.16191504 Ry
     Harris-Foulkes estimate   =   -1345.17039238 Ry
     estimated scf accuracy    <       0.00119989 Ry

     total magnetization       =     8.19 Bohr mag/cell
     absolute magnetization    =     8.58 Bohr mag/cell

     iteration # 13     ecut=   240.00 Ry     beta=0.70
     Davidson diagonalization with overlap
     ethr =  1.74E-06,  avg # of iterations =  3.4

     negative rho (up, down):  0.000E+00 1.876E-04
 
     Magnetic moment per site:
     atom:    1    charge:   12.8436    magn:    1.2158    constr:    0.0000
     atom:    2    charge:   12.8436    magn:    1.2158    constr:    0.0000
     atom:    3    charge:   12.8436    magn:    1.2158    constr:    0.0000
     atom:    4    charge:   12.7744    magn:    2.6455    constr:    0.0000
     atom:    5    charge:    4.0838    magn:   -0.0327    constr:    0.0000

     total cpu time spent up to now is      506.1 secs

     total energy              =   -1345.16962857 Ry
     Harris-Foulkes estimate   =   -1345.17103725 Ry
     estimated scf accuracy    <       0.00057793 Ry

     total magnetization       =     7.23 Bohr mag/cell
     absolute magnetization    =     7.60 Bohr mag/cell

     iteration # 14     ecut=   240.00 Ry     beta=0.70
     Davidson diagonalization with overlap
     ethr =  8.38E-07,  avg # of iterations =  2.6

     negative rho (up, down):  0.000E+00 1.914E-04
 
     Magnetic moment per site:
     atom:    1    charge:   12.8425    magn:    1.2913    constr:    0.0000
     atom:    2    charge:   12.8425    magn:    1.2913    constr:    0.0000
     atom:    3    charge:   12.8425    magn:    1.2913    constr:    0.0000
     atom:    4    charge:   12.7744    magn:    2.6534    constr:    0.0000
     atom:    5    charge:    4.0857    magn:   -0.0273    constr:    0.0000

     total cpu time spent up to now is      543.4 secs

     total energy              =   -1345.17055616 Ry
     Harris-Foulkes estimate   =   -1345.17028183 Ry
     estimated scf accuracy    <       0.00127295 Ry

     total magnetization       =     6.98 Bohr mag/cell
     absolute magnetization    =     7.35 Bohr mag/cell

     iteration # 15     ecut=   240.00 Ry     beta=0.70
     Davidson diagonalization with overlap
     ethr =  8.38E-07,  avg # of iterations =  2.1

     negative rho (up, down):  0.000E+00 1.927E-04
 
     Magnetic moment per site:
     atom:    1    charge:   12.8429    magn:    1.2921    constr:    0.0000
     atom:    2    charge:   12.8429    magn:    1.2921    constr:    0.0000
     atom:    3    charge:   12.8429    magn:    1.2921    constr:    0.0000
     atom:    4    charge:   12.7750    magn:    2.6623    constr:    0.0000
     atom:    5    charge:    4.0850    magn:   -0.0317    constr:    0.0000

     total cpu time spent up to now is      577.7 secs

     total energy              =   -1345.17100761 Ry
     Harris-Foulkes estimate   =   -1345.17091799 Ry
     estimated scf accuracy    <       0.00075087 Ry

     total magnetization       =     7.17 Bohr mag/cell
     absolute magnetization    =     7.54 Bohr mag/cell

     iteration # 16     ecut=   240.00 Ry     beta=0.70
     Davidson diagonalization with overlap
     ethr =  8.38E-07,  avg # of iterations =  1.0

     negative rho (up, down):  0.000E+00 2.222E-04
 
     Magnetic moment per site:
     atom:    1    charge:   12.8388    magn:    1.4954    constr:    0.0000
     atom:    2    charge:   12.8388    magn:    1.4954    constr:    0.0000
     atom:    3    charge:   12.8388    magn:    1.4954    constr:    0.0000
     atom:    4    charge:   12.7744    magn:    2.6879    constr:    0.0000
     atom:    5    charge:    4.0906    magn:   -0.0192    constr:    0.0000

     total cpu time spent up to now is      610.0 secs

     total energy              =   -1345.16876393 Ry
     Harris-Foulkes estimate   =   -1345.17102210 Ry
     estimated scf accuracy    <       0.00073948 Ry

     total magnetization       =     7.18 Bohr mag/cell
     absolute magnetization    =     7.55 Bohr mag/cell

     iteration # 17     ecut=   240.00 Ry     beta=0.70
     Davidson diagonalization with overlap
     ethr =  8.38E-07,  avg # of iterations =  3.1

     negative rho (up, down):  0.000E+00 2.224E-04
 
     Magnetic moment per site:
     atom:    1    charge:   12.8386    magn:    1.5003    constr:    0.0000
     atom:    2    charge:   12.8386    magn:    1.5003    constr:    0.0000
     atom:    3    charge:   12.8386    magn:    1.5003    constr:    0.0000
     atom:    4    charge:   12.7744    magn:    2.6855    constr:    0.0000
     atom:    5    charge:    4.0911    magn:   -0.0179    constr:    0.0000

     total cpu time spent up to now is      653.8 secs

     total energy              =   -1345.17145639 Ry
     Harris-Foulkes estimate   =   -1345.17146174 Ry
     estimated scf accuracy    <       0.00082140 Ry

     total magnetization       =     7.73 Bohr mag/cell
     absolute magnetization    =     8.07 Bohr mag/cell

     iteration # 18     ecut=   240.00 Ry     beta=0.70
     Davidson diagonalization with overlap
     ethr =  8.38E-07,  avg # of iterations =  1.0

     negative rho (up, down):  0.000E+00 2.241E-04
 
     Magnetic moment per site:
     atom:    1    charge:   12.8364    magn:    1.5492    constr:    0.0000
     atom:    2    charge:   12.8364    magn:    1.5492    constr:    0.0000
     atom:    3    charge:   12.8364    magn:    1.5492    constr:    0.0000
     atom:    4    charge:   12.7740    magn:    2.6667    constr:    0.0000
     atom:    5    charge:    4.0959    magn:   -0.0039    constr:    0.0000

     total cpu time spent up to now is      686.0 secs

     total energy              =   -1345.17122210 Ry
     Harris-Foulkes estimate   =   -1345.17145894 Ry
     estimated scf accuracy    <       0.00070425 Ry

     total magnetization       =     7.74 Bohr mag/cell
     absolute magnetization    =     8.09 Bohr mag/cell

     iteration # 19     ecut=   240.00 Ry     beta=0.70
     Davidson diagonalization with overlap
     ethr =  8.38E-07,  avg # of iterations =  2.0

     negative rho (up, down):  0.000E+00 2.208E-04
 
     Magnetic moment per site:
     atom:    1    charge:   12.8366    magn:    1.5372    constr:    0.0000
     atom:    2    charge:   12.8366    magn:    1.5372    constr:    0.0000
     atom:    3    charge:   12.8366    magn:    1.5372    constr:    0.0000
     atom:    4    charge:   12.7739    magn:    2.6653    constr:    0.0000
     atom:    5    charge:    4.0953    magn:   -0.0047    constr:    0.0000

     total cpu time spent up to now is      720.5 secs

     total energy              =   -1345.17144958 Ry
     Harris-Foulkes estimate   =   -1345.17142295 Ry
     estimated scf accuracy    <       0.00010919 Ry

     total magnetization       =     7.84 Bohr mag/cell
     absolute magnetization    =     8.19 Bohr mag/cell

     iteration # 20     ecut=   240.00 Ry     beta=0.70
     Davidson diagonalization with overlap
     ethr =  1.58E-07,  avg # of iterations =  1.1

     negative rho (up, down):  0.000E+00 2.068E-04
 
     Magnetic moment per site:
     atom:    1    charge:   12.8373    magn:    1.4824    constr:    0.0000
     atom:    2    charge:   12.8373    magn:    1.4824    constr:    0.0000
     atom:    3    charge:   12.8373    magn:    1.4824    constr:    0.0000
     atom:    4    charge:   12.7737    magn:    2.6541    constr:    0.0000
     atom:    5    charge:    4.0944    magn:   -0.0049    constr:    0.0000

     total cpu time spent up to now is      752.8 secs

     total energy              =   -1345.17133167 Ry
     Harris-Foulkes estimate   =   -1345.17145983 Ry
     estimated scf accuracy    <       0.00010676 Ry

     total magnetization       =     7.81 Bohr mag/cell
     absolute magnetization    =     8.16 Bohr mag/cell

     iteration # 21     ecut=   240.00 Ry     beta=0.70
     Davidson diagonalization with overlap
     ethr =  1.55E-07,  avg # of iterations =  3.0

     negative rho (up, down):  0.000E+00 2.065E-04
 
     Magnetic moment per site:
     atom:    1    charge:   12.8372    magn:    1.4833    constr:    0.0000
     atom:    2    charge:   12.8372    magn:    1.4833    constr:    0.0000
     atom:    3    charge:   12.8372    magn:    1.4833    constr:    0.0000
     atom:    4    charge:   12.7738    magn:    2.6536    constr:    0.0000
     atom:    5    charge:    4.0946    magn:   -0.0043    constr:    0.0000

     total cpu time spent up to now is      792.5 secs

     total energy              =   -1345.17153207 Ry
     Harris-Foulkes estimate   =   -1345.17153314 Ry
     estimated scf accuracy    <       0.00000756 Ry

     total magnetization       =     7.67 Bohr mag/cell
     absolute magnetization    =     8.02 Bohr mag/cell

     iteration # 22     ecut=   240.00 Ry     beta=0.70
     Davidson diagonalization with overlap
     ethr =  1.10E-08,  avg # of iterations =  1.7

     negative rho (up, down):  0.000E+00 2.072E-04
 
     Magnetic moment per site:
     atom:    1    charge:   12.8373    magn:    1.4845    constr:    0.0000
     atom:    2    charge:   12.8373    magn:    1.4845    constr:    0.0000
     atom:    3    charge:   12.8373    magn:    1.4845    constr:    0.0000
     atom:    4    charge:   12.7738    magn:    2.6544    constr:    0.0000
     atom:    5    charge:    4.0947    magn:   -0.0043    constr:    0.0000

     total cpu time spent up to now is      825.7 secs

     total energy              =   -1345.17153227 Ry
     Harris-Foulkes estimate   =   -1345.17153254 Ry
     estimated scf accuracy    <       0.00000539 Ry

     total magnetization       =     7.67 Bohr mag/cell
     absolute magnetization    =     8.02 Bohr mag/cell

     iteration # 23     ecut=   240.00 Ry     beta=0.70
     Davidson diagonalization with overlap
     ethr =  7.81E-09,  avg # of iterations =  1.2

     negative rho (up, down):  0.000E+00 2.075E-04
 
     Magnetic moment per site:
     atom:    1    charge:   12.8374    magn:    1.4854    constr:    0.0000
     atom:    2    charge:   12.8374    magn:    1.4854    constr:    0.0000
     atom:    3    charge:   12.8374    magn:    1.4854    constr:    0.0000
     atom:    4    charge:   12.7739    magn:    2.6544    constr:    0.0000
     atom:    5    charge:    4.0946    magn:   -0.0041    constr:    0.0000

     total cpu time spent up to now is      858.1 secs

     total energy              =   -1345.17153276 Ry
     Harris-Foulkes estimate   =   -1345.17153276 Ry
     estimated scf accuracy    <       0.00000061 Ry

     total magnetization       =     7.67 Bohr mag/cell
     absolute magnetization    =     8.02 Bohr mag/cell

     iteration # 24     ecut=   240.00 Ry     beta=0.70
     Davidson diagonalization with overlap
     ethr =  8.91E-10,  avg # of iterations =  2.9

     negative rho (up, down):  0.000E+00 2.076E-04
 
     Magnetic moment per site:
     atom:    1    charge:   12.8374    magn:    1.4866    constr:    0.0000
     atom:    2    charge:   12.8374    magn:    1.4866    constr:    0.0000
     atom:    3    charge:   12.8374    magn:    1.4866    constr:    0.0000
     atom:    4    charge:   12.7739    magn:    2.6543    constr:    0.0000
     atom:    5    charge:    4.0946    magn:   -0.0039    constr:    0.0000

     total cpu time spent up to now is      895.6 secs

     total energy              =   -1345.17153298 Ry
     Harris-Foulkes estimate   =   -1345.17153299 Ry
     estimated scf accuracy    <       0.00000008 Ry

     total magnetization       =     7.68 Bohr mag/cell
     absolute magnetization    =     8.03 Bohr mag/cell

     iteration # 25     ecut=   240.00 Ry     beta=0.70
     Davidson diagonalization with overlap
     ethr =  1.10E-10,  avg # of iterations =  2.7

     negative rho (up, down):  0.000E+00 2.076E-04
 
     Magnetic moment per site:
     atom:    1    charge:   12.8374    magn:    1.4873    constr:    0.0000
     atom:    2    charge:   12.8374    magn:    1.4873    constr:    0.0000
     atom:    3    charge:   12.8374    magn:    1.4873    constr:    0.0000
     atom:    4    charge:   12.7739    magn:    2.6540    constr:    0.0000
     atom:    5    charge:    4.0947    magn:   -0.0037    constr:    0.0000

     total cpu time spent up to now is      933.9 secs

     total energy              =   -1345.17153305 Ry
     Harris-Foulkes estimate   =   -1345.17153312 Ry
     estimated scf accuracy    <       0.00000029 Ry

     total magnetization       =     7.68 Bohr mag/cell
     absolute magnetization    =     8.03 Bohr mag/cell

     iteration # 26     ecut=   240.00 Ry     beta=0.70
     Davidson diagonalization with overlap
     ethr =  1.10E-10,  avg # of iterations =  2.8

     negative rho (up, down):  0.000E+00 2.076E-04
 
     Magnetic moment per site:
     atom:    1    charge:   12.8374    magn:    1.4874    constr:    0.0000
     atom:    2    charge:   12.8374    magn:    1.4874    constr:    0.0000
     atom:    3    charge:   12.8374    magn:    1.4874    constr:    0.0000
     atom:    4    charge:   12.7739    magn:    2.6539    constr:    0.0000
     atom:    5    charge:    4.0947    magn:   -0.0037    constr:    0.0000

     total cpu time spent up to now is      972.6 secs

     End of self-consistent calculation

 ------ SPIN UP ------------


          k = 0.0000 0.0000 0.0000 ( 20863 PWs)   bands (ev):

   -69.9380 -69.2600 -69.2057 -69.2057 -35.9989 -35.9989 -35.9989 -35.6162
   -35.6162 -35.6162 -35.1590 -35.1590 -35.1590 -35.1524 -35.1524 -35.1524
     0.3456  11.4280  13.3303  13.3303  13.3303  13.8394  13.8394  14.1049
    14.1049  14.1049  16.0921  16.0921  16.0921  17.1983  17.1983  17.8460
    17.8460  18.3983  18.3983  18.3983  18.4658  18.4658  18.4658  18.4674
    21.8874  23.7552

          k = 0.0000 0.0000 0.1111 ( 20975 PWs)   bands (ev):

   -69.9379 -69.2586 -69.2071 -69.2057 -35.9979 -35.9979 -35.9975 -35.6150
   -35.6150 -35.6140 -35.1600 -35.1600 -35.1593 -35.1572 -35.1536 -35.1536
     0.4153  11.4854  12.9272  13.1104  13.1104  13.9188  13.9304  14.1572
    14.3440  14.3440  16.0275  16.1461  16.1461  17.2214  17.2572  17.8145
    17.8700  18.3138  18.3138  18.3982  18.3982  18.3984  18.4063  18.4647
    21.9635  23.2362

          k = 0.0000 0.0000 0.2222 ( 20978 PWs)   bands (ev):

   -69.9376 -69.2547 -69.2113 -69.2056 -35.9954 -35.9954 -35.9941 -35.6120
   -35.6120 -35.6080 -35.1698 -35.1629 -35.1629 -35.1601 -35.1564 -35.1564
     0.6003  11.3377  12.5042  12.7672  12.7672  14.0810  14.1352  14.3089
    14.7508  14.7508  15.8447  16.2720  16.2720  17.1942  17.2857  17.7243
    17.7686  17.9542  17.9542  18.2393  18.3988  18.4015  18.4015  18.4619
    22.1774  22.5168

          k = 0.0000 0.0000 0.3333 ( 20994 PWs)   bands (ev):

   -69.9373 -69.2490 -69.2173 -69.2056 -35.9925 -35.9925 -35.9902 -35.6085
   -35.6085 -35.6005 -35.1848 -35.1666 -35.1666 -35.1609 -35.1593 -35.1593
     0.8281  10.6696  12.4973  12.4973  12.8459  14.1975  14.4172  14.5422
    15.1426  15.1426  15.5760  16.3644  16.3644  16.9835  17.3212  17.3616
    17.5815  17.5815  17.6124  18.0171  18.3992  18.4146  18.4146  18.4591
    22.0441  22.5715

          k = 0.0000 0.0000 0.4444 ( 21030 PWs)   bands (ev):

   -69.9371 -69.2437 -69.2228 -69.2056 -35.9907 -35.9907 -35.9877 -35.6062
   -35.6062 -35.5952 -35.1949 -35.1692 -35.1692 -35.1614 -35.1610 -35.1610
     0.9889  10.1828  12.3530  12.3530  13.4006  14.1247  14.6315  14.8078
    15.2872  15.4348  15.4348  16.3331  16.3331  16.7317  16.9438  17.3462
    17.3744  17.3744  17.6399  17.8044  18.3995  18.4298  18.4298  18.4574
    21.9108  22.7893

          k = 0.0000 0.1111 0.1111 ( 20978 PWs)   bands (ev):

   -69.9378 -69.2573 -69.2078 -69.2064 -35.9983 -35.9970 -35.9953 -35.6262
   -35.6138 -35.5997 -35.1704 -35.1610 -35.1606 -35.1573 -35.1549 -35.1485
     0.4850  11.5393  12.6986  12.8568  12.9537  13.9960  14.0038  14.2123
    14.4870  14.5135  16.0038  16.1627  16.1925  17.2487  17.2727  17.7259
    17.7832  18.2260  18.2639  18.3181  18.3243  18.4101  18.4790  18.5425
    22.0241  23.4380

          k = 0.0000 0.1111 0.2222 ( 20984 PWs)   bands (ev):

   -69.9375 -69.2534 -69.2116 -69.2067 -35.9967 -35.9945 -35.9920 -35.6337
   -35.6106 -35.5837 -35.1857 -35.1655 -35.1637 -35.1585 -35.1579 -35.1442
     0.6703  11.3589  12.2604  12.6630  12.6764  14.1570  14.2066  14.3623
    14.8143  14.8589  15.8416  16.2812  16.2888  17.1597  17.3235  17.4380
    17.5842  17.9114  18.1399  18.1983  18.2420  18.3838  18.5583  18.6823
    22.2027  22.6701

          k = 0.0000 0.1111 0.3333 ( 20991 PWs)   bands (ev):

   -69.9373 -69.2479 -69.2174 -69.2067 -35.9939 -35.9918 -35.9894 -35.6374
   -35.6070 -35.5697 -35.2010 -35.1706 -35.1674 -35.1609 -35.1604 -35.1420
     0.8987  10.6614  12.1384  12.4160  12.9458  14.2825  14.4858  14.5913
    15.1750  15.2145  15.5802  16.2915  16.3933  16.9293  17.0977  17.2658
    17.4903  17.5576  17.8564  18.0734  18.1797  18.3774  18.6300  18.6759
    22.2617  22.4504

          k = 0.0000 0.1111 0.4444 ( 21007 PWs)   bands (ev):

   -69.9371 -69.2426 -69.2228 -69.2067 -35.9915 -35.9899 -35.9884 -35.6387
   -35.6045 -35.5613 -35.2107 -35.1738 -35.1700 -35.1627 -35.1619 -35.1411
     1.0599  10.1713  12.0376  12.2806  13.4692  14.2192  14.7009  14.8576
    15.2906  15.4588  15.4815  16.1374  16.3910  16.6627  16.8640  17.2555
    17.3556  17.4656  17.7080  17.8995  18.1435  18.3753  18.6540  18.6759
    22.1430  22.6123

          k = 0.0000 0.2222 0.2222 ( 20994 PWs)   bands (ev):

   -69.9373 -69.2498 -69.2133 -69.2088 -35.9970 -35.9923 -35.9899 -35.6523
   -35.6071 -35.5582 -35.2070 -35.1681 -35.1661 -35.1615 -35.1602 -35.1306
     0.8565  11.2947  11.5675  12.4408  12.7895  14.3575  14.3835  14.5050
    15.0142  15.1102  15.7597  16.2748  16.3628  17.0226  17.0278  17.3103
    17.4586  17.7425  18.0344  18.0886  18.2579  18.3350  18.7086  18.9944
    22.1160  22.9985

          k = 0.0000 0.2222 0.3333 ( 20999 PWs)   bands (ev):

   -69.9371 -69.2445 -69.2179 -69.2097 -35.9956 -35.9898 -35.9892 -35.6647
   -35.6030 -35.5375 -35.2251 -35.1710 -35.1693 -35.1650 -35.1625 -35.1216
     1.0865  10.6285  11.3677  12.2332  13.1802  14.5163  14.6611  14.7162
    15.2787  15.3906  15.5580  16.0661  16.4959  16.7577  16.8086  17.1020
    17.4756  17.6358  17.8029  17.9580  18.1969  18.3521  18.8359  19.0293
    21.9456  22.8235

          k = 0.0000 0.2222 0.4444 ( 21011 PWs)   bands (ev):

   -69.9369 -69.2393 -69.2229 -69.2099 -35.9933 -35.9902 -35.9881 -35.6707
   -35.6003 -35.5258 -35.2355 -35.1729 -35.1719 -35.1670 -35.1641 -35.1171
     1.2492  10.1368  11.3032  12.1146  13.6798  14.4692  14.8908  14.9678
    15.2993  15.4958  15.5996  15.8224  16.5516  16.5534  16.6114  17.0966
    17.2980  17.5288  17.8750  17.8799  18.1777  18.2115  18.9126  18.9631
    21.9127  22.7457

          k = 0.0000 0.3333 0.3333 ( 21018 PWs)   bands (ev):

   -69.9369 -69.2396 -69.2195 -69.2131 -35.9960 -35.9905 -35.9875 -35.6841
   -35.5984 -35.5122 -35.2447 -35.1718 -35.1709 -35.1696 -35.1650 -35.1068
     1.3189  10.5582  10.5959  12.0538  13.5742  14.8384  14.8434  14.8882
    15.4139  15.4602  15.5951  15.7405  16.5552  16.6481  16.6578  16.8986
    17.3282  17.6093  17.7584  17.9054  18.0438  18.5480  19.0045  19.1746
    21.2661  23.3556

          k = 0.0000 0.3333 0.4444 ( 21026 PWs)   bands (ev):

   -69.9368 -69.2345 -69.2231 -69.2147 -35.9950 -35.9927 -35.9860 -35.6941
   -35.5954 -35.4982 -35.2555 -35.1740 -35.1720 -35.1709 -35.1668 -35.0991
     1.4839  10.0900  10.5351  11.9484  14.0223  14.7992  15.0850  15.1283
    15.2953  15.5099  15.5582  15.7466  16.4017  16.4740  16.7778  16.8317
    17.2033  17.3999  17.6210  17.9742  18.1740  18.5811  19.1031  19.1300
    20.9080  23.4488

          k = 0.0000 0.4444 0.4444 ( 21034 PWs)   bands (ev):

   -69.9367 -69.2289 -69.2235 -69.2198 -35.9956 -35.9947 -35.9846 -35.7065
   -35.5921 -35.4830 -35.2665 -35.1755 -35.1752 -35.1696 -35.1687 -35.0895
     1.6508  10.0558  10.0562  11.8497  14.3681  15.0247  15.1859  15.2540
    15.2590  15.4091  15.5745  15.8592  16.3139  16.3957  16.5769  16.9870
    17.1138  17.2348  17.4097  17.8579  18.3841  18.9444  19.1752  19.2132
    20.1305  23.9983

          k = 0.1111 0.1111 0.1111 ( 20965 PWs)   bands (ev):

   -69.9377 -69.2560 -69.2078 -69.2078 -35.9976 -35.9976 -35.9930 -35.6383
   -35.5985 -35.5985 -35.1734 -35.1696 -35.1696 -35.1506 -35.1488 -35.1488
     0.5549  11.5893  12.5637  12.5637  12.8355  14.0718  14.0718  14.3896
    14.3896  14.7341  15.9885  16.2022  16.2022  17.2668  17.2668  17.6643
    17.6643  17.9912  18.1234  18.3442  18.3442  18.4198  18.6410  18.6410
    22.0743  23.5625

          k = 0.1111 0.1111 0.2222 ( 21008 PWs)   bands (ev):

   -69.9375 -69.2522 -69.2118 -69.2078 -35.9966 -35.9958 -35.9898 -35.6505
   -35.5956 -35.5781 -35.1900 -35.1800 -35.1714 -35.1509 -35.1459 -35.1436
     0.7405  11.3710  12.1431  12.2978  12.7588  14.2324  14.2775  14.4625
    14.7621  15.0133  15.8441  16.2847  16.2952  17.1762  17.2942  17.3840
    17.4078  17.7635  17.9270  18.2176  18.3453  18.3564  18.8021  18.8329
    22.2208  22.8348

          k = 0.1111 0.1111 0.3333 ( 20999 PWs)   bands (ev):

   -69.9372 -69.2467 -69.2175 -69.2078 -35.9938 -35.9937 -35.9879 -35.6580
   -35.5923 -35.5607 -35.2062 -35.1887 -35.1724 -35.1526 -35.1466 -35.1395
     0.9694  10.6461  12.0640  12.0768  13.0382  14.3637  14.5547  14.6649
    15.1710  15.2804  15.5907  16.2780  16.3443  16.9168  17.0709  17.1117
    17.4310  17.6064  17.7042  18.0897  18.2502  18.3341  18.6812  18.9925
    22.4189  22.4434

          k = 0.1111 0.1111 0.4444 ( 20999 PWs)   bands (ev):

   -69.9370 -69.2415 -69.2229 -69.2077 -35.9924 -35.9905 -35.9881 -35.6613
   -35.5900 -35.5505 -35.2162 -35.1937 -35.1730 -35.1538 -35.1481 -35.1375
     1.1313  10.1542  11.9340  12.0077  13.5364  14.3073  14.7709  14.9231
    15.3009  15.4549  15.5305  16.0756  16.2780  16.6258  16.9674  17.0971
    17.3341  17.4992  17.7092  17.9302  18.1844  18.3238  18.5240  19.0840
    22.3369  22.5623

          k = 0.1111 0.2222 0.2222 ( 21000 PWs)   bands (ev):

   -69.9373 -69.2487 -69.2133 -69.2099 -35.9970 -35.9949 -35.9874 -35.6707
   -35.5865 -35.5573 -35.2081 -35.1851 -35.1816 -35.1465 -35.1456 -35.1309
     0.9273  11.2970  11.4890  12.0699  12.8955  14.4280  14.4565  14.6311
    14.9390  15.2088  15.7702  16.2696  16.3401  17.0317  17.0918  17.2142
    17.3958  17.5442  17.7222  18.2481  18.2498  18.3218  19.0778  19.1106
    22.1896  23.1064

          k = 0.1111 0.2222 0.3333 ( 21007 PWs)   bands (ev):

   -69.9370 -69.2435 -69.2179 -69.2106 -35.9959 -35.9934 -35.9868 -35.6849
   -35.5820 -35.5360 -35.2254 -35.1937 -35.1837 -35.1474 -35.1442 -35.1216
     1.1581  10.5980  11.3112  11.9147  13.2656  14.5774  14.7280  14.8335
    15.2638  15.3765  15.5836  16.1023  16.3720  16.7651  16.9126  17.0314
    17.4420  17.4782  17.6146  18.1520  18.1977  18.2545  18.9967  19.3338
    22.0569  22.8861

          k = 0.1111 0.2222 0.4444 ( 20997 PWs)   bands (ev):

   -69.9369 -69.2385 -69.2229 -69.2107 -35.9943 -35.9921 -35.9876 -35.6920
   -35.5794 -35.5235 -35.2354 -35.1993 -35.1842 -35.1482 -35.1442 -35.1171
     1.3215  10.1073  11.2412  11.8217  13.7357  14.5292  14.9595  15.0710
    15.3033  15.4785  15.6037  15.8649  16.2989  16.5433  16.8770  16.9675
    17.3025  17.4481  17.7964  18.0503  18.1009  18.2333  18.7429  19.4754
    22.0152  22.8357

          k = 0.1111 0.3333 0.3333 ( 20994 PWs)   bands (ev):

   -69.9369 -69.2388 -69.2195 -69.2139 -35.9967 -35.9934 -35.9868 -35.7050
   -35.5765 -35.5118 -35.2436 -35.1952 -35.1924 -35.1456 -35.1442 -35.1069
     1.3917  10.5242  10.5392  11.7568  13.6360  14.8224  14.9038  15.0686
    15.3297  15.4720  15.5694  15.9049  16.3667  16.6361  16.7526  16.9584
    17.3278  17.3353  17.7954  18.0114  18.1088  18.3396  19.2236  19.4680
    21.3617  23.2564

          k = 0.1111 0.3333 0.4444 ( 21016 PWs)   bands (ev):

   -69.9368 -69.2339 -69.2231 -69.2152 -35.9961 -35.9943 -35.9872 -35.7156
   -35.5735 -35.4977 -35.2539 -35.1996 -35.1936 -35.1454 -35.1441 -35.0991
     1.5578  10.0487  10.4833  11.6623  14.0409  14.7949  15.0910  15.2862
    15.2943  15.5093  15.5622  15.9174  16.2897  16.4461  16.7281  16.9209
    17.2028  17.3107  17.8567  17.9765  18.0304  18.4890  19.0170  19.6594
    20.9539  23.3825

          k = 0.1111 0.4444 0.4444 ( 21035 PWs)   bands (ev):

   -69.9367 -69.2286 -69.2235 -69.2201 -35.9968 -35.9961 -35.9870 -35.7282
   -35.5703 -35.4829 -35.2641 -35.1994 -35.1990 -35.1444 -35.1441 -35.0895
     1.7260  10.0074  10.0093  11.5675  14.3231  14.9816  15.0453  15.2045
    15.5460  15.5517  15.6299  16.0536  16.2559  16.3618  16.5044  16.9238
    17.1740  17.2215  17.6747  17.9345  18.0856  18.8779  19.1704  19.7002
    20.1197  23.7364

          k = 0.2222 0.2222 0.2222 ( 20999 PWs)   bands (ev):

   -69.9371 -69.2455 -69.2133 -69.2133 -35.9969 -35.9969 -35.9857 -35.6963
   -35.5550 -35.5550 -35.2156 -35.1983 -35.1983 -35.1334 -35.1334 -35.1293
     1.1157  11.2708  11.3112  11.3112  13.1132  14.6222  14.6222  14.9419
    14.9419  15.3041  15.7315  16.2794  16.2794  16.9691  16.9691  17.2823
    17.2823  17.2922  17.4272  18.2285  18.2285  18.3818  19.4147  19.4147
    22.2835  23.0621

          k = 0.2222 0.2222 0.3333 ( 21015 PWs)   bands (ev):

   -69.9369 -69.2408 -69.2181 -69.2132 -35.9968 -35.9968 -35.9864 -35.7155
   -35.5523 -35.5290 -35.2296 -35.2112 -35.2009 -35.1333 -35.1256 -35.1198
     1.3491  10.5168  11.1353  11.2354  13.4787  14.7337  14.8918  15.1005
    15.2917  15.2956  15.6687  16.1479  16.2340  16.7241  16.7861  17.1816
    17.1846  17.3773  17.5206  18.1616  18.2197  18.3164  19.2418  19.7641
    22.2487  22.6936

          k = 0.2222 0.2222 0.4444 ( 21011 PWs)   bands (ev):

   -69.9368 -69.2360 -69.2230 -69.2132 -35.9968 -35.9951 -35.9885 -35.7254
   -35.5505 -35.5144 -35.2386 -35.2183 -35.2012 -35.1339 -35.1222 -35.1143
     1.5149  10.0324  11.0316  11.1935  13.8847  14.6645  15.1472  15.1480
    15.4030  15.4924  15.6116  15.9867  16.1835  16.4973  16.7713  17.0064
    17.1467  17.5600  17.7232  18.0966  18.1966  18.2422  18.8108  20.0144
    22.2602  22.3756

          k = 0.2222 0.3333 0.3333 ( 21013 PWs)   bands (ev):

   -69.9368 -69.2366 -69.2195 -69.2161 -35.9986 -35.9977 -35.9882 -35.7393
   -35.5397 -35.5106 -35.2415 -35.2165 -35.2130 -35.1245 -35.1231 -35.1070
     1.5865  10.4047  10.4371  11.0621  13.7833  14.8927  14.9971  15.1536
    15.4037  15.4570  15.8014  16.1024  16.2132  16.6137  16.6341  16.9617
    17.3039  17.3490  17.6460  18.1529  18.2323  18.2821  19.4026  19.9184
    21.6313  22.6892

          k = 0.2222 0.3333 0.4444 ( 21023 PWs)   bands (ev):

   -69.9367 -69.2322 -69.2231 -69.2169 -35.9989 -35.9978 -35.9907 -35.7520
   -35.5365 -35.4963 -35.2499 -35.2223 -35.2144 -35.1241 -35.1191 -35.0991
     1.7557   9.9478  10.3578  10.9827  14.0722  14.8047  15.0271  15.2236
    15.4899  15.7146  15.8750  16.1618  16.1876  16.4232  16.6201  16.8036
    17.2859  17.5121  17.7755  18.1063  18.1696  18.3881  19.0267  20.2483
    21.0539  22.6440

          k = 0.2222 0.4444 0.4444 ( 21015 PWs)   bands (ev):

   -69.9366 -69.2278 -69.2235 -69.2208 -35.9998 -35.9995 -35.9928 -35.7664
   -35.5320 -35.4827 -35.2582 -35.2220 -35.2214 -35.1192 -35.1190 -35.0895
     1.9280   9.8898   9.8971  10.8924  14.2094  14.8978  14.9496  15.0889
    15.6721  16.0013  16.1136  16.2021  16.2633  16.3987  16.5121  16.6593
    17.4067  17.4416  17.8214  17.9829  18.1012  18.7645  19.1470  19.9408
    20.4397  22.9021

          k = 0.3333 0.3333 0.3333 ( 21002 PWs)   bands (ev):

   -69.9367 -69.2333 -69.2194 -69.2194 -36.0006 -36.0006 -35.9918 -35.7670
   -35.5091 -35.5091 -35.2426 -35.2283 -35.2283 -35.1094 -35.1094 -35.1050
     1.8295  10.2647  10.2647  10.4018  13.9569  14.9419  14.9944  14.9944
    15.6692  15.6692  16.1351  16.2178  16.2178  16.5751  16.5751  16.7365
    17.4734  17.5585  17.5585  18.2039  18.2039  18.3423  19.7537  19.7537
    21.9451  21.9451

          k = 0.3333 0.3333 0.4444 ( 21035 PWs)   bands (ev):

   -69.9366 -69.2296 -69.2231 -69.2194 -36.0020 -36.0012 -35.9955 -35.7820
   -35.5082 -35.4922 -35.2477 -35.2364 -35.2297 -35.1083 -35.1017 -35.0978
     2.0036   9.8387  10.1794  10.3014  14.0867  14.8129  14.9323  15.0658
    15.7097  15.9684  16.2182  16.2969  16.3760  16.5445  16.5849  16.7066
    17.4819  17.6854  17.7211  18.2223  18.2879  18.3195  19.0863  20.2692
    21.0592  21.9462

          k = 0.3333 0.4444 0.4444 ( 21034 PWs)   bands (ev):

   -69.9366 -69.2266 -69.2235 -69.2220 -36.0033 -36.0032 -35.9995 -35.7984
   -35.5000 -35.4825 -35.2516 -35.2382 -35.2375 -35.1001 -35.0998 -35.0895
     2.1818   9.7650   9.7773  10.1656  14.0870  14.8235  14.8778  14.9431
    15.8646  16.0630  16.2510  16.2629  16.4464  16.8097  16.8157  16.9890
    17.6310  17.6605  17.7494  18.2079  18.2602  18.5487  19.0740  19.6183
    20.9368  21.9308

          k = 0.4444 0.4444 0.4444 ( 20981 PWs)   bands (ev):

   -69.9366 -69.2251 -69.2234 -69.2234 -36.0054 -36.0054 -36.0041 -35.8161
   -35.4823 -35.4823 -35.2481 -35.2458 -35.2458 -35.0898 -35.0898 -35.0891
     2.3652   9.6881   9.6881   9.7164  14.0121  14.7927  14.8332  14.8332
    16.0114  16.0114  16.2628  16.2628  16.3293  17.4464  17.4464  17.4746
    17.7440  17.7440  17.9040  18.3145  18.3145  18.3173  18.9396  18.9396
    21.2441  21.2441

 ------ SPIN DOWN ----------


          k = 0.0000 0.0000 0.0000 ( 20863 PWs)   bands (ev):

   -67.3637 -67.3030 -67.3030 -66.5341 -33.9869 -33.9869 -33.9869 -33.2308
   -33.2308 -33.2308 -33.1921 -33.1921 -33.1921 -32.6396 -32.6396 -32.6396
     0.4463  11.7276  13.3947  13.3947  13.3947  15.2106  15.2106  15.5335
    15.5335  15.5335  18.0410  18.0410  18.0410  18.7046  18.7046  20.2816
    20.2816  20.2816  20.4081  20.4081  20.5093  20.8706  20.8706  20.8706
    23.0634  23.9611

          k = 0.0000 0.0000 0.1111 ( 20975 PWs)   bands (ev):

   -67.3621 -67.3045 -67.3029 -66.5342 -33.9856 -33.9856 -33.9851 -33.2312
   -33.2298 -33.2298 -33.1932 -33.1932 -33.1925 -32.6425 -32.6408 -32.6408
     0.5152  11.7585  13.0942  13.2812  13.2812  15.2704  15.3099  15.5907
    15.6866  15.6866  17.9633  18.1034  18.1034  18.7111  18.8013  20.2359
    20.2359  20.2818  20.3476  20.3645  20.4464  20.6202  20.6202  20.8706
    23.1047  23.6077

          k = 0.0000 0.0000 0.2222 ( 20978 PWs)   bands (ev):

   -67.3573 -67.3091 -67.3029 -66.5344 -33.9825 -33.9825 -33.9807 -33.2322
   -33.2272 -33.2272 -33.1960 -33.1960 -33.1933 -32.6498 -32.6438 -32.6438
     0.6980  11.5209  12.8546  13.0419  13.0419  15.3355  15.5855  15.7544
    16.0359  16.0359  17.7479  18.2771  18.2771  18.7204  18.8138  19.9887
    19.9887  20.1243  20.1428  20.2201  20.2201  20.2823  20.3765  20.8708
    23.0981  23.2964

          k = 0.0000 0.0000 0.3333 ( 20994 PWs)   bands (ev):

   -67.3504 -67.3157 -67.3029 -66.5347 -33.9789 -33.9789 -33.9756 -33.2333
   -33.2244 -33.2244 -33.1992 -33.1992 -33.1943 -32.6582 -32.6474 -32.6474
     0.9224  10.8625  12.8210  12.8210  13.2716  15.2191  15.9595  15.9954
    16.4087  16.4087  17.4485  18.5180  18.5180  18.5892  18.7025  19.4683
    19.4683  19.7687  19.8262  20.0526  20.0526  20.2828  20.3215  20.8710
    22.9354  23.5438

          k = 0.0000 0.0000 0.4444 ( 21030 PWs)   bands (ev):

   -67.3439 -67.3220 -67.3029 -66.5348 -33.9766 -33.9766 -33.9723 -33.2340
   -33.2225 -33.2225 -33.2012 -33.2012 -33.1950 -32.6638 -32.6497 -32.6497
     1.0803  10.3964  12.6955  12.6955  13.9345  14.7946  16.2270  16.2615
    16.6608  16.6608  17.1793  18.4155  18.6440  18.7635  18.7635  19.0530
    19.0530  19.4979  19.6037  19.9434  19.9434  20.2832  20.2854  20.8712
    22.9015  23.7477

          k = 0.0000 0.1111 0.1111 ( 20978 PWs)   bands (ev):

   -67.3604 -67.3053 -67.3038 -66.5343 -33.9984 -33.9844 -33.9697 -33.2352
   -33.2288 -33.2279 -33.1978 -33.1943 -33.1869 -32.6463 -32.6420 -32.6404
     0.5842  11.7907  12.8621  13.1406  13.1802  15.3465  15.3811  15.6566
    15.8145  15.8154  17.9270  18.1261  18.1577  18.7521  18.7967  20.1518
    20.1885  20.2135  20.2572  20.3571  20.4303  20.5233  20.5311  20.7748
    23.1396  23.8583

          k = 0.0000 0.1111 0.2222 ( 20984 PWs)   bands (ev):

   -67.3558 -67.3094 -67.3041 -66.5345 -34.0077 -33.9813 -33.9535 -33.2423
   -33.2261 -33.2257 -33.2012 -33.1971 -33.1817 -32.6526 -32.6451 -32.6426
     0.7671  11.5461  12.5126  12.9610  13.0783  15.4216  15.6384  15.8235
    16.1192  16.1286  17.7347  18.2827  18.2970  18.6946  18.7299  19.8200
    19.9569  19.9614  20.0875  20.2025  20.3613  20.3779  20.4818  20.7402
    23.2071  23.4012

          k = 0.0000 0.1111 0.3333 ( 20991 PWs)   bands (ev):

   -67.3491 -67.3157 -67.3041 -66.5347 -34.0133 -33.9778 -33.9399 -33.2494
   -33.2233 -33.2231 -33.2034 -33.2003 -33.1784 -32.6586 -32.6487 -32.6464
     0.9918  10.8683  12.4340  12.7536  13.4031  15.3131  16.0056  16.0653
    16.4577  16.4683  17.4441  18.3443  18.4937  18.5275  18.6583  19.4836
    19.5000  19.7219  19.8938  19.9374  20.2480  20.3629  20.3844  20.7409
    23.1202  23.4630

          k = 0.0000 0.1111 0.4444 ( 21007 PWs)   bands (ev):

   -67.3427 -67.3220 -67.3041 -66.5349 -34.0159 -33.9755 -33.9322 -33.2537
   -33.2214 -33.2213 -33.2047 -33.2023 -33.1769 -32.6620 -32.6510 -32.6492
     1.1500  10.3978  12.3630  12.6343  14.0096  14.9058  16.3025  16.3040
    16.6881  16.7030  17.1801  18.1820  18.3306  18.7855  18.7915  19.0849
    19.3044  19.5822  19.6173  19.8228  20.1430  20.3060  20.3646  20.7425
    23.1030  23.5992

          k = 0.0000 0.2222 0.2222 ( 20994 PWs)   bands (ev):

   -67.3515 -67.3111 -67.3063 -66.5347 -34.0291 -33.9784 -33.9269 -33.2585
   -33.2258 -33.2233 -33.2049 -33.2000 -33.1672 -32.6565 -32.6483 -32.6425
     0.9505  11.4991  11.8223  12.7778  13.2516  15.6150  15.7740  15.9973
    16.3297  16.3636  17.6309  18.2673  18.3694  18.5061  18.5786  19.6836
    19.7680  19.8180  19.9189  20.0933  20.4437  20.4475  20.5155  20.6848
    23.1191  23.9533

          k = 0.0000 0.2222 0.3333 ( 20999 PWs)   bands (ev):

   -67.3453 -67.3161 -67.3073 -66.5348 -34.0441 -33.9749 -33.9059 -33.2721
   -33.2256 -33.2200 -33.2091 -33.2031 -33.1560 -32.6582 -32.6520 -32.6450
     1.1763  10.8718  11.6511  12.5969  13.6634  15.5697  16.0778  16.2381
    16.5923  16.6216  17.4052  17.9795  18.2658  18.5837  18.5886  19.5183
    19.5367  19.7118  19.7451  19.8915  20.4106  20.4110  20.4839  20.6811
    23.0115  23.7344

          k = 0.0000 0.2222 0.4444 ( 21011 PWs)   bands (ev):

   -67.3392 -67.3218 -67.3075 -66.5350 -34.0518 -33.9727 -33.8942 -33.2798
   -33.2244 -33.2180 -33.2130 -33.2051 -33.1501 -32.6576 -32.6544 -32.6482
     1.3355  10.3960  11.6141  12.4903  14.2181  15.2000  16.3417  16.4882
    16.7633  16.8470  17.1757  17.7079  18.1342  18.6116  18.8659  19.1779
    19.3753  19.6217  19.6727  19.8137  20.3954  20.4157  20.4753  20.5143
    23.0488  23.6572

          k = 0.0000 0.3333 0.3333 ( 21018 PWs)   bands (ev):

   -67.3397 -67.3178 -67.3110 -66.5350 -34.0664 -33.9716 -33.8796 -33.2900
   -33.2280 -33.2165 -33.2163 -33.2064 -33.1383 -32.6559 -32.6558 -32.6452
     1.4038  10.8320  10.8969  12.4375  14.0753  15.8682  16.0259  16.4607
    16.7896  16.7990  17.2930  17.6315  18.0635  18.5077  18.7328  19.3588
    19.5305  19.5346  19.7314  19.9249  20.1458  20.5073  20.5137  20.8575
    22.5355  24.3133

          k = 0.0000 0.3333 0.4444 ( 21026 PWs)   bands (ev):

   -67.3339 -67.3217 -67.3126 -66.5351 -34.0782 -33.9694 -33.8653 -33.2997
   -33.2283 -33.2224 -33.2142 -33.2084 -33.1288 -32.6583 -32.6525 -32.6473
     1.5647  10.3852  10.8477  12.3420  14.5567  15.6032  16.2203  16.6896
    16.8594  17.0664  17.1526  17.3659  17.9798  18.4024  18.9744  19.2075
    19.2665  19.5028  19.5849  20.0347  20.0960  20.5257  20.5913  20.7762
    22.3309  24.3167

          k = 0.0000 0.4444 0.4444 ( 21034 PWs)   bands (ev):

   -67.3279 -67.3221 -67.3181 -66.5352 -34.0922 -33.9673 -33.8496 -33.3104
   -33.2305 -33.2288 -33.2118 -33.2105 -33.1172 -32.6608 -32.6488 -32.6471
     1.7270  10.3717  10.3757  12.2522  14.9224  15.9621  15.9822  16.8459
    16.9116  16.9141  17.1165  17.5506  17.9119  18.1332  19.0468  19.0619
    19.3044  19.4723  19.5335  19.7152  20.2626  20.5384  20.7785  20.8776
    21.8696  24.8266

          k = 0.1111 0.1111 0.1111 ( 20965 PWs)   bands (ev):

   -67.3588 -67.3053 -67.3053 -66.5344 -34.0117 -33.9686 -33.9686 -33.2362
   -33.2309 -33.2309 -33.1957 -33.1957 -33.1830 -32.6500 -32.6413 -32.6413
     0.6532  11.8236  12.7771  12.7771  13.1935  15.4346  15.4346  15.7978
    15.7978  15.9798  17.8992  18.1707  18.1707  18.7705  18.7705  20.0057
    20.1165  20.1421  20.1421  20.4005  20.4005  20.4020  20.6832  20.6832
    23.1810  24.0625

          k = 0.1111 0.1111 0.2222 ( 21008 PWs)   bands (ev):

   -67.3543 -67.3095 -67.3052 -66.5346 -34.0260 -33.9658 -33.9478 -33.2436
   -33.2382 -33.2289 -33.1957 -33.1929 -33.1773 -32.6558 -32.6436 -32.6431
     0.8363  11.5661  12.4035  12.5861  13.2015  15.5070  15.6956  15.9213
    16.1318  16.2323  17.7284  18.2745  18.2894  18.6800  18.6803  19.6474
    19.7883  19.9248  19.9926  20.2988  20.4491  20.4713  20.5380  20.7273
    23.2584  23.5523

          k = 0.1111 0.1111 0.3333 ( 20999 PWs)   bands (ev):

   -67.3478 -67.3158 -67.3052 -66.5348 -34.0357 -33.9625 -33.9306 -33.2517
   -33.2458 -33.2242 -33.1939 -33.1926 -33.1730 -32.6597 -32.6476 -32.6463
     1.0614  10.8680  12.3698  12.3990  13.5154  15.4058  16.0630  16.1447
    16.4745  16.5167  17.4469  18.2330  18.3236  18.6234  18.6584  19.2549
    19.5474  19.7154  19.8095  20.1299  20.3506  20.3763  20.5339  20.6671
    23.2543  23.4788

          k = 0.1111 0.1111 0.4444 ( 20999 PWs)   bands (ev):

   -67.3415 -67.3219 -67.3052 -66.5349 -34.0405 -33.9604 -33.9209 -33.2566
   -33.2505 -33.2201 -33.1941 -33.1925 -33.1709 -32.6606 -32.6523 -32.6480
     1.2200  10.3941  12.2893  12.3294  14.0811  15.0140  16.3633  16.3821
    16.6153  16.8201  17.1838  17.9896  18.2135  18.7871  18.8091  19.0182
    19.2798  19.6462  19.6873  20.0049  20.1066  20.3069  20.5543  20.6459
    23.2675  23.5689

          k = 0.1111 0.2222 0.2222 ( 21000 PWs)   bands (ev):

   -67.3502 -67.3111 -67.3075 -66.5347 -34.0490 -33.9569 -33.9261 -33.2590
   -33.2404 -33.2391 -33.1907 -33.1877 -33.1658 -32.6597 -32.6454 -32.6427
     1.0202  11.5141  11.7664  12.3870  13.3760  15.7044  15.8408  16.1109
    16.3312  16.3848  17.6415  18.2107  18.2627  18.5891  18.6016  19.4315
    19.5364  19.8334  19.8427  20.2437  20.4422  20.4844  20.7325  20.8285
    23.2303  23.9473

          k = 0.1111 0.2222 0.3333 ( 21007 PWs)   bands (ev):

   -67.3442 -67.3161 -67.3083 -66.5349 -34.0660 -33.9529 -33.9045 -33.2736
   -33.2500 -33.2381 -33.1879 -33.1855 -33.1552 -32.6607 -32.6484 -32.6446
     1.2466  10.8575  11.6116  12.2610  13.7620  15.6578  16.1554  16.3303
    16.5270  16.6652  17.4261  17.9405  18.1448  18.6005  18.6607  19.2781
    19.3044  19.7070  19.8063  20.0895  20.3803  20.4333  20.7263  20.8363
    23.1213  23.7697

          k = 0.1111 0.2222 0.4444 ( 20997 PWs)   bands (ev):

   -67.3382 -67.3218 -67.3084 -66.5350 -34.0748 -33.9507 -33.8920 -33.2816
   -33.2558 -33.2369 -33.1861 -33.1853 -33.1494 -32.6579 -32.6529 -32.6466
     1.4064  10.3800  11.5686  12.1835  14.2830  15.2975  16.4053  16.5685
    16.6592  16.9775  17.1954  17.6108  18.0537  18.6267  18.8410  19.0776
    19.1792  19.7030  19.8060  19.9540  20.3195  20.3830  20.4880  20.8719
    23.1471  23.7263

          k = 0.1111 0.3333 0.3333 ( 20994 PWs)   bands (ev):

   -67.3388 -67.3178 -67.3118 -66.5350 -34.0891 -33.9485 -33.8793 -33.2924
   -33.2527 -33.2493 -33.1849 -33.1831 -33.1381 -32.6596 -32.6496 -32.6445
     1.4751  10.8124  10.8547  12.1297  14.1547  15.9504  16.0732  16.5538
    16.6811  16.8731  17.3267  17.6478  17.9841  18.5072  18.7405  19.0987
    19.3923  19.5426  19.9239  19.9248  20.2617  20.4111  20.8984  20.9779
    22.5960  24.2110

          k = 0.1111 0.3333 0.4444 ( 21016 PWs)   bands (ev):

   -67.3333 -67.3217 -67.3132 -66.5351 -34.1014 -33.9462 -33.8649 -33.3025
   -33.2586 -33.2516 -33.1833 -33.1826 -33.1286 -32.6577 -32.6501 -32.6459
     1.6368  10.3568  10.8091  12.0487  14.6042  15.6784  16.2441  16.7772
    16.8627  17.0623  17.1774  17.4109  17.9283  18.4036  18.8155  18.9912
    19.3558  19.5850  19.7344  19.9964  20.1409  20.5094  20.7319  21.0729
    22.3519  24.2447

          k = 0.1111 0.4444 0.4444 ( 21035 PWs)   bands (ev):

   -67.3276 -67.3221 -67.3184 -66.5351 -34.1156 -33.9439 -33.8495 -33.3136
   -33.2606 -33.2600 -33.1820 -33.1818 -33.1171 -32.6582 -32.6471 -32.6458
     1.8002  10.3372  10.3387  11.9661  14.9330  15.9994  16.0392  16.8468
    16.9392  17.0014  17.1563  17.6199  17.8810  18.1381  18.6867  19.0342
    19.4389  19.5799  19.6274  19.9198  19.9908  20.7271  20.8653  21.1311
    21.8234  24.5854

          k = 0.2222 0.2222 0.2222 ( 20999 PWs)   bands (ev):

   -67.3465 -67.3111 -67.3111 -66.5348 -34.0777 -33.9242 -33.9242 -33.2614
   -33.2614 -33.2587 -33.1747 -33.1747 -33.1599 -32.6627 -32.6431 -32.6431
     1.2052  11.5056  11.6332  11.6332  13.6117  15.9656  15.9656  16.3810
    16.3960  16.3960  17.6133  18.0859  18.0859  18.6335  18.6335  19.2215
    19.2255  19.7409  19.7409  20.3382  20.4370  20.4370  21.0801  21.0801
    23.3972  23.8154

          k = 0.2222 0.2222 0.3333 ( 21015 PWs)   bands (ev):

   -67.3411 -67.3163 -67.3110 -66.5349 -34.0998 -33.9219 -33.8975 -33.2785
   -33.2762 -33.2616 -33.1697 -33.1643 -33.1504 -32.6617 -32.6446 -32.6436
     1.4336  10.8143  11.4941  11.5403  14.0010  15.8917  16.3473  16.3800
    16.5658  16.7438  17.4589  17.8192  17.9647  18.6056  18.6850  18.9744
    19.2131  19.6809  19.7893  20.2384  20.3908  20.4169  20.9557  21.2854
    23.3373  23.6137

          k = 0.2222 0.2222 0.4444 ( 21011 PWs)   bands (ev):

   -67.3355 -67.3217 -67.3110 -66.5350 -34.1115 -33.9204 -33.8828 -33.2879
   -33.2849 -33.2626 -33.1680 -33.1594 -33.1443 -32.6572 -32.6494 -32.6439
     1.5952  10.3372  11.4092  11.5220  14.4637  15.5468  16.4097  16.6962
    16.7869  17.0772  17.2509  17.4545  17.9242  18.6153  18.7202  18.7986
    19.2516  19.7833  19.8994  20.1209  20.3447  20.3567  20.5389  21.3918
    23.3746  23.4639

          k = 0.2222 0.3333 0.3333 ( 21013 PWs)   bands (ev):

   -67.3364 -67.3177 -67.3141 -66.5350 -34.1266 -33.9095 -33.8784 -33.2983
   -33.2828 -33.2789 -33.1588 -33.1569 -33.1372 -32.6591 -32.6437 -32.6427
     1.6652  10.7517  10.7598  11.4197  14.3573  16.1250  16.1725  16.5858
    16.7955  16.9205  17.4225  17.6826  17.8429  18.5146  18.6474  18.7609
    19.3524  19.6421  19.8904  20.1761  20.3802  20.3973  21.0668  21.4860
    22.7512  23.7078

          k = 0.2222 0.3333 0.4444 ( 21023 PWs)   bands (ev):

   -67.3314 -67.3217 -67.3150 -66.5351 -34.1410 -33.9066 -33.8637 -33.3095
   -33.2915 -33.2833 -33.1564 -33.1522 -33.1281 -32.6546 -32.6455 -32.6424
     1.8295  10.2852  10.7137  11.3579  14.7230  15.8567  16.2686  16.8383
    17.0105  17.0608  17.3085  17.5570  17.8458  18.4189  18.5336  18.7259
    19.4678  19.7471  19.9624  20.0610  20.3209  20.4542  20.7320  21.6895
    22.3541  23.6880

          k = 0.2222 0.4444 0.4444 ( 21015 PWs)   bands (ev):

   -67.3267 -67.3221 -67.3192 -66.5351 -34.1571 -33.9027 -33.8494 -33.3215
   -33.2952 -33.2945 -33.1510 -33.1507 -33.1170 -32.6516 -32.6431 -32.6426
     1.9961  10.2478  10.2519  11.2850  14.9443  16.0836  16.1699  16.6778
    17.2032  17.2398  17.3382  17.7452  17.8432  18.1948  18.3673  18.7274
    19.6940  19.7348  19.8890  19.9597  20.2298  20.6464  20.8149  21.6135
    21.8563  23.8902

          k = 0.3333 0.3333 0.3333 ( 21002 PWs)   bands (ev):

   -67.3327 -67.3177 -67.3177 -66.5351 -34.1572 -33.8773 -33.8773 -33.3060
   -33.3060 -33.3002 -33.1406 -33.1406 -33.1336 -32.6547 -32.6407 -32.6407
     1.9012  10.6409  10.6409  10.7350  14.6291  16.0838  16.4464  16.4464
    17.0957  17.0957  17.5101  17.7471  17.7471  18.4505  18.5255  18.5255
    19.5063  19.8514  19.8514  20.2896  20.3760  20.3760  21.3674  21.3674
    22.9689  22.9689

          k = 0.3333 0.3333 0.4444 ( 21035 PWs)   bands (ev):

   -67.3286 -67.3217 -67.3177 -66.5351 -34.1739 -33.8766 -33.8596 -33.3187
   -33.3148 -33.3078 -33.1380 -33.1315 -33.1259 -32.6492 -32.6413 -32.6393
     2.0695  10.2050  10.5718  10.6654  14.8541  16.0352  16.2875  16.6327
    17.3154  17.3326  17.5107  17.7315  17.8242  18.2898  18.4213  18.5172
    19.6667  19.9042  20.0202  20.2100  20.3906  20.4081  20.7760  21.7175
    22.3421  23.1530

          k = 0.3333 0.4444 0.4444 ( 21034 PWs)   bands (ev):

   -67.3254 -67.3220 -67.3205 -66.5351 -34.1918 -33.8681 -33.8492 -33.3303
   -33.3217 -33.3209 -33.1287 -33.1284 -33.1169 -32.6440 -32.6389 -32.6387
     2.2410  10.1490  10.1585  10.5576  14.9330  16.1686  16.2821  16.4794
    17.5926  17.5995  17.6671  17.8601  17.8665  18.1334  18.3000  18.4924
    19.8638  19.9511  20.0417  20.1414  20.4197  20.4853  20.7228  21.2312
    22.3661  23.1196

          k = 0.4444 0.4444 0.4444 ( 20981 PWs)   bands (ev):

   -67.3238 -67.3220 -67.3220 -66.5351 -34.2110 -33.8491 -33.8491 -33.3360
   -33.3360 -33.3350 -33.1172 -33.1172 -33.1163 -32.6385 -32.6364 -32.6364
     2.4167  10.0868  10.0868  10.1093  14.9149  16.2386  16.3299  16.3299
    17.8948  17.8948  17.9810  17.9810  17.9853  18.0023  18.3664  18.3664
    20.0131  20.0710  20.0710  20.2604  20.3447  20.3447  20.7349  20.7349
    22.6688  22.6688

     the Fermi energy is    18.7319 ev

!    total energy              =   -1345.17153312 Ry
     Harris-Foulkes estimate   =   -1345.17153312 Ry
     estimated scf accuracy    <          7.9E-09 Ry

     total all-electron energy =    -10291.773168 Ry

     The total energy is the sum of the following terms:

     one-electron contribution =    -446.73692417 Ry
     hartree contribution      =     269.20144348 Ry
     xc contribution           =    -117.08720314 Ry
     ewald contribution        =    -711.61403732 Ry
     one-center paw contrib.   =    -338.93490211 Ry
     smearing contrib. (-TS)   =       0.00009014 Ry

     total magnetization       =     7.68 Bohr mag/cell
     absolute magnetization    =     8.03 Bohr mag/cell

     convergence has been achieved in  26 iterations

     Forces acting on atoms (Ry/au):


     negative rho (up, down):  0.000E+00 2.076E-04
     atom    1 type  1   force =     0.00000000    0.00000000    0.00000000
     atom    2 type  1   force =     0.00000000    0.00000000    0.00000000
     atom    3 type  1   force =     0.00000000    0.00000000    0.00000000
     atom    4 type  1   force =     0.00000000    0.00000000    0.00000000
     atom    5 type  2   force =     0.00000000    0.00000000    0.00000000

     Total force =     0.000000     Total SCF correction =     0.000000


     entering subroutine stress ...


     negative rho (up, down):  0.000E+00 2.076E-04
          total   stress  (Ry/bohr**3)                   (kbar)     P=  149.57
   0.00101678   0.00000000   0.00000000        149.57      0.00      0.00
   0.00000000   0.00101678   0.00000000          0.00    149.57      0.00
   0.00000000   0.00000000   0.00101678          0.00      0.00    149.57


     Writing output data file config.save
 
     init_run     :     13.04s CPU     13.33s WALL (       1 calls)
     electrons    :    949.14s CPU    958.92s WALL (       1 calls)
     forces       :      2.71s CPU      2.79s WALL (       1 calls)
     stress       :     16.03s CPU     16.24s WALL (       1 calls)

     Called by init_run:
     wfcinit      :     11.42s CPU     11.56s WALL (       1 calls)
     potinit      :      0.64s CPU      0.69s WALL (       1 calls)

     Called by electrons:
     c_bands      :    733.81s CPU    739.10s WALL (      26 calls)
     sum_band     :    191.79s CPU    194.54s WALL (      26 calls)
     v_of_rho     :      6.00s CPU      6.04s WALL (      27 calls)
     newd         :      6.76s CPU      8.20s WALL (      27 calls)
     mix_rho      :      1.67s CPU      1.67s WALL (      26 calls)

     Called by c_bands:
     init_us_2    :     13.73s CPU     13.88s WALL (    3850 calls)
     cegterg      :    690.72s CPU    695.75s WALL (    1820 calls)

     Called by sum_band:
     sum_band:bec :      0.06s CPU      0.06s WALL (    1820 calls)
     addusdens    :     18.33s CPU     20.00s WALL (      26 calls)

     Called by *egterg:
     h_psi        :    554.90s CPU    559.31s WALL (    6283 calls)
     s_psi        :     18.93s CPU     19.03s WALL (    6283 calls)
     g_psi        :      3.26s CPU      3.28s WALL (    4393 calls)
     cdiaghg      :     17.60s CPU     17.71s WALL (    6213 calls)

     Called by h_psi:
     add_vuspsi   :     18.41s CPU     18.57s WALL (    6283 calls)

     General routines
     calbec       :     26.15s CPU     26.38s WALL (    8453 calls)
     fft          :      4.16s CPU      4.19s WALL (     871 calls)
     ffts         :      0.14s CPU      0.14s WALL (     106 calls)
     fftw         :    474.61s CPU    478.16s WALL (  438294 calls)
     interpolate  :      0.86s CPU      0.88s WALL (     106 calls)
     davcio       :      0.17s CPU      1.03s WALL (      70 calls)
 
     Parallel routines
     fft_scatter  :    237.41s CPU    239.37s WALL (  439271 calls)

     PAW routines
     PAW_pot      :      9.15s CPU      9.41s WALL (      27 calls)
     PAW_symme    :      0.04s CPU      0.04s WALL (      53 calls)
 
     PWSCF        : 16m22.11s CPU    16m33.50s WALL

 
   This run was terminated on:   2:14:22  27Oct2020            

=------------------------------------------------------------------------------=
   JOB DONE.
=------------------------------------------------------------------------------=
