
     Program PWSCF v.5.2.0 starts on 26Oct2020 at 22:25:11 

     This program is part of the open-source Quantum ESPRESSO suite
     for quantum simulation of materials; please cite
         "P. Giannozzi et al., J. Phys.:Condens. Matter 21 395502 (2009);
          URL http://www.quantum-espresso.org", 
     in publications or presentations arising from this work. More details at
     http://www.quantum-espresso.org/quote

     Parallel version (MPI), running on     6 processors
     R & G space division:  proc/nbgrp/npool/nimage =       6
     Reading input from 2.in

     Current dimensions of program PWSCF are:
     Max number of different atomic species (ntypx) = 10
     Max number of k-points (npk) =  40000
     Max angular momentum in pseudopotentials (lmaxx) =  3

     IMPORTANT: XC functional enforced from input :
     Exchange-correlation      = PBE ( 1  4  3  4 0 0)
     Any further DFT definition will be discarded
     Please, verify this is what you really want

               file Fe_PSEUDO: wavefunction(s)  3P 3D renormalized
               file N_PSEUDO: wavefunction(s)  2S renormalized

     Subspace diagonalization in iterative solution of the eigenvalue problem:
     a serial algorithm will be used

 
     Parallelization info
     --------------------
     sticks:   dense  smooth     PW     G-vecs:    dense   smooth      PW
     Min         267     180     52                 8083     4417     694
     Max         269     181     53                 8084     4425     695
     Sum        1609    1085    317                48501    26529    4169
 
     Generating pointlists ...
     new r_m :   0.2063 (alat units)  1.4318 (a.u.) for type    1
     new r_m :   0.2063 (alat units)  1.4318 (a.u.) for type    2


     bravais-lattice index     =            0
     lattice parameter (alat)  =       6.9422  a.u.
     unit-cell volume          =     334.5777 (a.u.)^3
     number of atoms/cell      =            5
     number of atomic types    =            2
     number of electrons       =        69.00
     number of Kohn-Sham states=           42
     kinetic-energy cutoff     =      70.0000  Ry
     charge density cutoff     =     420.0000  Ry
     convergence threshold     =      1.0E-08
     mixing beta               =       0.7000
     number of iterations used =            8  plain     mixing
     Exchange-correlation      = PBE ( 1  4  3  4 0 0)

     celldm(1)=   6.942230  celldm(2)=   0.000000  celldm(3)=   0.000000
     celldm(4)=   0.000000  celldm(5)=   0.000000  celldm(6)=   0.000000

     crystal axes: (cart. coord. in units of alat)
               a(1) = (   1.000000   0.000000   0.000000 )  
               a(2) = (   0.000000   1.000000   0.000000 )  
               a(3) = (   0.000000   0.000000   1.000000 )  

     reciprocal axes: (cart. coord. in units 2 pi/alat)
               b(1) = (  1.000000  0.000000  0.000000 )  
               b(2) = (  0.000000  1.000000  0.000000 )  
               b(3) = (  0.000000  0.000000  1.000000 )  


     PseudoPot. # 1 for Fe read from file:
     pseudo/Fe_PSEUDO
     MD5 check sum: e30d5f36a6f0cb983ee41abee56170da
     Pseudo is Projector augmented-wave + core cor, Zval = 16.0
     Generated using "atomic" code by A. Dal Corso  v.6.3
     Shape of augmentation charge: PSQ
     Using radial grid of 1191 points,  6 beta functions with: 
                l(1) =   0
                l(2) =   0
                l(3) =   1
                l(4) =   1
                l(5) =   2
                l(6) =   2
     Q(r) pseudized with 0 coefficients 


     PseudoPot. # 2 for  N read from file:
     pseudo/N_PSEUDO
     MD5 check sum: 14c48229446f9f2d411169a3abcbc3fa
     Pseudo is Projector augmented-wave + core cor, Zval =  5.0
     Generated using "atomic" code by A. Dal Corso  v.6.3
     Shape of augmentation charge: PSQ
     Using radial grid of 1085 points,  4 beta functions with: 
                l(1) =   0
                l(2) =   0
                l(3) =   1
                l(4) =   1
     Q(r) pseudized with 0 coefficients 


     atomic species   valence    mass     pseudopotential
        Fe            16.00    55.84500     Fe( 1.00)
        N              5.00    14.00650      N( 1.00)

     Starting magnetic structure 
     atomic species   magnetization
        Fe           0.500
        N           -0.010

     48 Sym. Ops., with inversion, found



   Cartesian axes

     site n.     atom                  positions (alat units)
         1           Fe  tau(   1) = (   0.0000000   0.5000000   0.5000000  )
         2           Fe  tau(   2) = (   0.5000000   0.5000000   0.0000000  )
         3           Fe  tau(   3) = (   0.5000000   0.0000000   0.5000000  )
         4           Fe  tau(   4) = (   0.0000000   0.0000000   0.0000000  )
         5           N   tau(   5) = (   0.5000000   0.5000000   0.5000000  )

     number of k points=    70  Marzari-Vanderbilt smearing, width (Ry)=  0.0050
                       cart. coord. in units 2pi/alat
        k(    1) = (   0.0000000   0.0000000   0.0000000), wk =   0.0013717
        k(    2) = (   0.0000000   0.0000000   0.1111111), wk =   0.0082305
        k(    3) = (   0.0000000   0.0000000   0.2222222), wk =   0.0082305
        k(    4) = (   0.0000000   0.0000000   0.3333333), wk =   0.0082305
        k(    5) = (   0.0000000   0.0000000   0.4444444), wk =   0.0082305
        k(    6) = (   0.0000000   0.1111111   0.1111111), wk =   0.0164609
        k(    7) = (   0.0000000   0.1111111   0.2222222), wk =   0.0329218
        k(    8) = (   0.0000000   0.1111111   0.3333333), wk =   0.0329218
        k(    9) = (   0.0000000   0.1111111   0.4444444), wk =   0.0329218
        k(   10) = (   0.0000000   0.2222222   0.2222222), wk =   0.0164609
        k(   11) = (   0.0000000   0.2222222   0.3333333), wk =   0.0329218
        k(   12) = (   0.0000000   0.2222222   0.4444444), wk =   0.0329218
        k(   13) = (   0.0000000   0.3333333   0.3333333), wk =   0.0164609
        k(   14) = (   0.0000000   0.3333333   0.4444444), wk =   0.0329218
        k(   15) = (   0.0000000   0.4444444   0.4444444), wk =   0.0164609
        k(   16) = (   0.1111111   0.1111111   0.1111111), wk =   0.0109739
        k(   17) = (   0.1111111   0.1111111   0.2222222), wk =   0.0329218
        k(   18) = (   0.1111111   0.1111111   0.3333333), wk =   0.0329218
        k(   19) = (   0.1111111   0.1111111   0.4444444), wk =   0.0329218
        k(   20) = (   0.1111111   0.2222222   0.2222222), wk =   0.0329218
        k(   21) = (   0.1111111   0.2222222   0.3333333), wk =   0.0658436
        k(   22) = (   0.1111111   0.2222222   0.4444444), wk =   0.0658436
        k(   23) = (   0.1111111   0.3333333   0.3333333), wk =   0.0329218
        k(   24) = (   0.1111111   0.3333333   0.4444444), wk =   0.0658436
        k(   25) = (   0.1111111   0.4444444   0.4444444), wk =   0.0329218
        k(   26) = (   0.2222222   0.2222222   0.2222222), wk =   0.0109739
        k(   27) = (   0.2222222   0.2222222   0.3333333), wk =   0.0329218
        k(   28) = (   0.2222222   0.2222222   0.4444444), wk =   0.0329218
        k(   29) = (   0.2222222   0.3333333   0.3333333), wk =   0.0329218
        k(   30) = (   0.2222222   0.3333333   0.4444444), wk =   0.0658436
        k(   31) = (   0.2222222   0.4444444   0.4444444), wk =   0.0329218
        k(   32) = (   0.3333333   0.3333333   0.3333333), wk =   0.0109739
        k(   33) = (   0.3333333   0.3333333   0.4444444), wk =   0.0329218
        k(   34) = (   0.3333333   0.4444444   0.4444444), wk =   0.0329218
        k(   35) = (   0.4444444   0.4444444   0.4444444), wk =   0.0109739
        k(   36) = (   0.0000000   0.0000000   0.0000000), wk =   0.0013717
        k(   37) = (   0.0000000   0.0000000   0.1111111), wk =   0.0082305
        k(   38) = (   0.0000000   0.0000000   0.2222222), wk =   0.0082305
        k(   39) = (   0.0000000   0.0000000   0.3333333), wk =   0.0082305
        k(   40) = (   0.0000000   0.0000000   0.4444444), wk =   0.0082305
        k(   41) = (   0.0000000   0.1111111   0.1111111), wk =   0.0164609
        k(   42) = (   0.0000000   0.1111111   0.2222222), wk =   0.0329218
        k(   43) = (   0.0000000   0.1111111   0.3333333), wk =   0.0329218
        k(   44) = (   0.0000000   0.1111111   0.4444444), wk =   0.0329218
        k(   45) = (   0.0000000   0.2222222   0.2222222), wk =   0.0164609
        k(   46) = (   0.0000000   0.2222222   0.3333333), wk =   0.0329218
        k(   47) = (   0.0000000   0.2222222   0.4444444), wk =   0.0329218
        k(   48) = (   0.0000000   0.3333333   0.3333333), wk =   0.0164609
        k(   49) = (   0.0000000   0.3333333   0.4444444), wk =   0.0329218
        k(   50) = (   0.0000000   0.4444444   0.4444444), wk =   0.0164609
        k(   51) = (   0.1111111   0.1111111   0.1111111), wk =   0.0109739
        k(   52) = (   0.1111111   0.1111111   0.2222222), wk =   0.0329218
        k(   53) = (   0.1111111   0.1111111   0.3333333), wk =   0.0329218
        k(   54) = (   0.1111111   0.1111111   0.4444444), wk =   0.0329218
        k(   55) = (   0.1111111   0.2222222   0.2222222), wk =   0.0329218
        k(   56) = (   0.1111111   0.2222222   0.3333333), wk =   0.0658436
        k(   57) = (   0.1111111   0.2222222   0.4444444), wk =   0.0658436
        k(   58) = (   0.1111111   0.3333333   0.3333333), wk =   0.0329218
        k(   59) = (   0.1111111   0.3333333   0.4444444), wk =   0.0658436
        k(   60) = (   0.1111111   0.4444444   0.4444444), wk =   0.0329218
        k(   61) = (   0.2222222   0.2222222   0.2222222), wk =   0.0109739
        k(   62) = (   0.2222222   0.2222222   0.3333333), wk =   0.0329218
        k(   63) = (   0.2222222   0.2222222   0.4444444), wk =   0.0329218
        k(   64) = (   0.2222222   0.3333333   0.3333333), wk =   0.0329218
        k(   65) = (   0.2222222   0.3333333   0.4444444), wk =   0.0658436
        k(   66) = (   0.2222222   0.4444444   0.4444444), wk =   0.0329218
        k(   67) = (   0.3333333   0.3333333   0.3333333), wk =   0.0109739
        k(   68) = (   0.3333333   0.3333333   0.4444444), wk =   0.0329218
        k(   69) = (   0.3333333   0.4444444   0.4444444), wk =   0.0329218
        k(   70) = (   0.4444444   0.4444444   0.4444444), wk =   0.0109739

     Dense  grid:    48501 G-vectors     FFT dimensions: (  45,  45,  45)

     Smooth grid:    26529 G-vectors     FFT dimensions: (  40,  40,  40)

     Largest allocated arrays     est. size (Mb)     dimensions
        Kohn-Sham Wavefunctions         0.36 Mb     (     560,   42)
        NL pseudopotentials             0.68 Mb     (     560,   80)
        Each V/rho on FFT grid          0.49 Mb     (   16200,   2)
        Each G-vector array             0.06 Mb     (    8083)
        G-vector shells                 0.00 Mb     (     422)
     Largest temporary arrays     est. size (Mb)     dimensions
        Auxiliary wavefunctions         1.44 Mb     (     560,  168)
        Each subspace H/S matrix        0.43 Mb     (     168,  168)
        Each <psi_i|beta_j> matrix      0.05 Mb     (      80,   42)
        Arrays for rho mixing           1.98 Mb     (   16200,    8)

     Check: negative/imaginary core charge=   -0.000006    0.000000

     Initial potential from superposition of free atoms

     starting charge   68.99837, renormalised to   69.00000
     Starting wfc are   44 randomized atomic wfcs
     Checking if some PAW data can be deallocated... 

     total cpu time spent up to now is        2.6 secs

     per-process dynamical memory:    51.6 Mb

     Self-consistent Calculation

     iteration #  1     ecut=    70.00 Ry     beta=0.70
     Davidson diagonalization with overlap
     ethr =  1.00E-02,  avg # of iterations =  3.1

     negative rho (up, down):  0.000E+00 3.586E-04
 
     Magnetic moment per site:
     atom:    1    charge:   12.7314    magn:    4.0977    constr:    0.0000
     atom:    2    charge:   12.7314    magn:    4.0977    constr:    0.0000
     atom:    3    charge:   12.7314    magn:    4.0977    constr:    0.0000
     atom:    4    charge:   12.6141    magn:    4.1674    constr:    0.0000
     atom:    5    charge:    4.6360    magn:    0.1183    constr:    0.0000

     total cpu time spent up to now is        8.1 secs

     total energy              =   -1344.11468399 Ry
     Harris-Foulkes estimate   =   -1343.41534565 Ry
     estimated scf accuracy    <       2.86718611 Ry

     total magnetization       =    13.87 Bohr mag/cell
     absolute magnetization    =    14.05 Bohr mag/cell

     iteration #  2     ecut=    70.00 Ry     beta=0.70
     Davidson diagonalization with overlap
     ethr =  4.16E-03,  avg # of iterations =  3.4

     negative rho (up, down):  0.000E+00 7.186E-05
 
     Magnetic moment per site:
     atom:    1    charge:   12.7225    magn:    3.8157    constr:    0.0000
     atom:    2    charge:   12.7225    magn:    3.8157    constr:    0.0000
     atom:    3    charge:   12.7225    magn:    3.8157    constr:    0.0000
     atom:    4    charge:   13.0649    magn:    3.5703    constr:    0.0000
     atom:    5    charge:    4.2255    magn:    0.0568    constr:    0.0000

     total cpu time spent up to now is       13.6 secs

     total energy              =   -1343.27357676 Ry
     Harris-Foulkes estimate   =   -1345.71359278 Ry
     estimated scf accuracy    <       8.46918738 Ry

     total magnetization       =     9.38 Bohr mag/cell
     absolute magnetization    =    10.50 Bohr mag/cell

     iteration #  3     ecut=    70.00 Ry     beta=0.70
     Davidson diagonalization with overlap
     ethr =  4.16E-03,  avg # of iterations =  3.5

     negative rho (up, down):  0.000E+00 6.060E-05
 
     Magnetic moment per site:
     atom:    1    charge:   12.8831    magn:    3.4468    constr:    0.0000
     atom:    2    charge:   12.8831    magn:    3.4468    constr:    0.0000
     atom:    3    charge:   12.8831    magn:    3.4468    constr:    0.0000
     atom:    4    charge:   12.8118    magn:    3.0180    constr:    0.0000
     atom:    5    charge:    4.0297    magn:    0.0239    constr:    0.0000

     total cpu time spent up to now is       19.8 secs

     total energy              =   -1343.59051395 Ry
     Harris-Foulkes estimate   =   -1346.16096261 Ry
     estimated scf accuracy    <      25.55927984 Ry

     total magnetization       =     3.79 Bohr mag/cell
     absolute magnetization    =     4.49 Bohr mag/cell

     iteration #  4     ecut=    70.00 Ry     beta=0.70
     Davidson diagonalization with overlap
     ethr =  4.16E-03,  avg # of iterations =  3.2

     negative rho (up, down):  0.000E+00 2.273E-04
 
     Magnetic moment per site:
     atom:    1    charge:   12.7722    magn:    2.2630    constr:    0.0000
     atom:    2    charge:   12.7722    magn:    2.2630    constr:    0.0000
     atom:    3    charge:   12.7722    magn:    2.2630    constr:    0.0000
     atom:    4    charge:   12.7282    magn:    1.8797    constr:    0.0000
     atom:    5    charge:    4.0538    magn:   -0.0487    constr:    0.0000

     total cpu time spent up to now is       25.6 secs

     total energy              =   -1344.99723088 Ry
     Harris-Foulkes estimate   =   -1345.07681369 Ry
     estimated scf accuracy    <       0.55095699 Ry

     total magnetization       =    10.75 Bohr mag/cell
     absolute magnetization    =    11.16 Bohr mag/cell

     iteration #  5     ecut=    70.00 Ry     beta=0.70
     Davidson diagonalization with overlap
     ethr =  7.98E-04,  avg # of iterations =  3.3

     negative rho (up, down):  0.000E+00 2.422E-04
 
     Magnetic moment per site:
     atom:    1    charge:   12.8313    magn:    2.1628    constr:    0.0000
     atom:    2    charge:   12.8313    magn:    2.1628    constr:    0.0000
     atom:    3    charge:   12.8313    magn:    2.1628    constr:    0.0000
     atom:    4    charge:   12.8040    magn:    2.0437    constr:    0.0000
     atom:    5    charge:    4.1103    magn:   -0.0268    constr:    0.0000

     total cpu time spent up to now is       32.0 secs

     total energy              =   -1345.08325063 Ry
     Harris-Foulkes estimate   =   -1345.17103742 Ry
     estimated scf accuracy    <       0.24313654 Ry

     total magnetization       =     9.59 Bohr mag/cell
     absolute magnetization    =     9.95 Bohr mag/cell

     iteration #  6     ecut=    70.00 Ry     beta=0.70
     Davidson diagonalization with overlap
     ethr =  3.52E-04,  avg # of iterations =  3.0

     negative rho (up, down):  0.000E+00 3.287E-04
 
     Magnetic moment per site:
     atom:    1    charge:   12.8251    magn:    2.1141    constr:    0.0000
     atom:    2    charge:   12.8251    magn:    2.1141    constr:    0.0000
     atom:    3    charge:   12.8251    magn:    2.1141    constr:    0.0000
     atom:    4    charge:   12.7928    magn:    2.3709    constr:    0.0000
     atom:    5    charge:    4.1121    magn:    0.0062    constr:    0.0000

     total cpu time spent up to now is       37.8 secs

     total energy              =   -1345.13025634 Ry
     Harris-Foulkes estimate   =   -1345.12601136 Ry
     estimated scf accuracy    <       0.02627286 Ry

     total magnetization       =     9.37 Bohr mag/cell
     absolute magnetization    =     9.71 Bohr mag/cell

     iteration #  7     ecut=    70.00 Ry     beta=0.70
     Davidson diagonalization with overlap
     ethr =  3.81E-05,  avg # of iterations =  1.7

     negative rho (up, down):  0.000E+00 4.794E-04
 
     Magnetic moment per site:
     atom:    1    charge:   12.8259    magn:    1.9533    constr:    0.0000
     atom:    2    charge:   12.8259    magn:    1.9533    constr:    0.0000
     atom:    3    charge:   12.8259    magn:    1.9533    constr:    0.0000
     atom:    4    charge:   12.7726    magn:    2.8076    constr:    0.0000
     atom:    5    charge:    4.1113    magn:    0.0387    constr:    0.0000

     total cpu time spent up to now is       42.3 secs

     total energy              =   -1345.13016848 Ry
     Harris-Foulkes estimate   =   -1345.13201185 Ry
     estimated scf accuracy    <       0.01804945 Ry

     total magnetization       =     9.37 Bohr mag/cell
     absolute magnetization    =     9.71 Bohr mag/cell

     iteration #  8     ecut=    70.00 Ry     beta=0.70
     Davidson diagonalization with overlap
     ethr =  2.62E-05,  avg # of iterations =  2.2

     negative rho (up, down):  0.000E+00 4.773E-04
 
     Magnetic moment per site:
     atom:    1    charge:   12.8290    magn:    1.8564    constr:    0.0000
     atom:    2    charge:   12.8290    magn:    1.8564    constr:    0.0000
     atom:    3    charge:   12.8290    magn:    1.8564    constr:    0.0000
     atom:    4    charge:   12.7750    magn:    2.7253    constr:    0.0000
     atom:    5    charge:    4.1091    magn:    0.0307    constr:    0.0000

     total cpu time spent up to now is       47.1 secs

     total energy              =   -1345.13522734 Ry
     Harris-Foulkes estimate   =   -1345.13424711 Ry
     estimated scf accuracy    <       0.00210327 Ry

     total magnetization       =     8.98 Bohr mag/cell
     absolute magnetization    =     9.33 Bohr mag/cell

     iteration #  9     ecut=    70.00 Ry     beta=0.70
     Davidson diagonalization with overlap
     ethr =  3.05E-06,  avg # of iterations =  2.1

     negative rho (up, down):  0.000E+00 4.825E-04
 
     Magnetic moment per site:
     atom:    1    charge:   12.8268    magn:    1.9974    constr:    0.0000
     atom:    2    charge:   12.8268    magn:    1.9974    constr:    0.0000
     atom:    3    charge:   12.8268    magn:    1.9974    constr:    0.0000
     atom:    4    charge:   12.7740    magn:    2.7582    constr:    0.0000
     atom:    5    charge:    4.1142    magn:    0.0388    constr:    0.0000

     total cpu time spent up to now is       51.7 secs

     total energy              =   -1345.13236904 Ry
     Harris-Foulkes estimate   =   -1345.13608818 Ry
     estimated scf accuracy    <       0.00211856 Ry

     total magnetization       =     8.55 Bohr mag/cell
     absolute magnetization    =     8.94 Bohr mag/cell

     iteration # 10     ecut=    70.00 Ry     beta=0.70
     Davidson diagonalization with overlap
     ethr =  3.05E-06,  avg # of iterations =  2.0

     negative rho (up, down):  0.000E+00 4.786E-04
 
     Magnetic moment per site:
     atom:    1    charge:   12.8252    magn:    2.0907    constr:    0.0000
     atom:    2    charge:   12.8252    magn:    2.0907    constr:    0.0000
     atom:    3    charge:   12.8252    magn:    2.0907    constr:    0.0000
     atom:    4    charge:   12.7751    magn:    2.7408    constr:    0.0000
     atom:    5    charge:    4.1180    magn:    0.0460    constr:    0.0000

     total cpu time spent up to now is       56.5 secs

     total energy              =   -1345.13206826 Ry
     Harris-Foulkes estimate   =   -1345.13399754 Ry
     estimated scf accuracy    <       0.00227828 Ry

     total magnetization       =     9.10 Bohr mag/cell
     absolute magnetization    =     9.44 Bohr mag/cell

     iteration # 11     ecut=    70.00 Ry     beta=0.70
     Davidson diagonalization with overlap
     ethr =  3.05E-06,  avg # of iterations =  1.9

     negative rho (up, down):  0.000E+00 4.601E-04
 
     Magnetic moment per site:
     atom:    1    charge:   12.8323    magn:    1.7132    constr:    0.0000
     atom:    2    charge:   12.8323    magn:    1.7132    constr:    0.0000
     atom:    3    charge:   12.8323    magn:    1.7132    constr:    0.0000
     atom:    4    charge:   12.7749    magn:    2.6959    constr:    0.0000
     atom:    5    charge:    4.1040    magn:    0.0133    constr:    0.0000

     total cpu time spent up to now is       61.5 secs

     total energy              =   -1345.12806798 Ry
     Harris-Foulkes estimate   =   -1345.13266567 Ry
     estimated scf accuracy    <       0.00303193 Ry

     total magnetization       =     9.36 Bohr mag/cell
     absolute magnetization    =     9.69 Bohr mag/cell

     iteration # 12     ecut=    70.00 Ry     beta=0.70
     Davidson diagonalization with overlap
     ethr =  3.05E-06,  avg # of iterations =  3.1

     negative rho (up, down):  0.000E+00 4.419E-04
 
     Magnetic moment per site:
     atom:    1    charge:   12.8387    magn:    1.3570    constr:    0.0000
     atom:    2    charge:   12.8387    magn:    1.3570    constr:    0.0000
     atom:    3    charge:   12.8387    magn:    1.3570    constr:    0.0000
     atom:    4    charge:   12.7743    magn:    2.6503    constr:    0.0000
     atom:    5    charge:    4.0899    magn:   -0.0191    constr:    0.0000

     total cpu time spent up to now is       68.0 secs

     total energy              =   -1345.13195671 Ry
     Harris-Foulkes estimate   =   -1345.13827564 Ry
     estimated scf accuracy    <       0.00110100 Ry

     total magnetization       =     8.18 Bohr mag/cell
     absolute magnetization    =     8.56 Bohr mag/cell

     iteration # 13     ecut=    70.00 Ry     beta=0.70
     Davidson diagonalization with overlap
     ethr =  1.60E-06,  avg # of iterations =  3.3

     negative rho (up, down):  0.000E+00 4.386E-04
 
     Magnetic moment per site:
     atom:    1    charge:   12.8405    magn:    1.2767    constr:    0.0000
     atom:    2    charge:   12.8405    magn:    1.2767    constr:    0.0000
     atom:    3    charge:   12.8405    magn:    1.2767    constr:    0.0000
     atom:    4    charge:   12.7744    magn:    2.6458    constr:    0.0000
     atom:    5    charge:    4.0863    magn:   -0.0273    constr:    0.0000

     total cpu time spent up to now is       75.4 secs

     total energy              =   -1345.13822808 Ry
     Harris-Foulkes estimate   =   -1345.13907114 Ry
     estimated scf accuracy    <       0.00042898 Ry

     total magnetization       =     7.32 Bohr mag/cell
     absolute magnetization    =     7.69 Bohr mag/cell

     iteration # 14     ecut=    70.00 Ry     beta=0.70
     Davidson diagonalization with overlap
     ethr =  6.22E-07,  avg # of iterations =  2.3

     negative rho (up, down):  0.000E+00 4.419E-04
 
     Magnetic moment per site:
     atom:    1    charge:   12.8391    magn:    1.3552    constr:    0.0000
     atom:    2    charge:   12.8391    magn:    1.3552    constr:    0.0000
     atom:    3    charge:   12.8391    magn:    1.3552    constr:    0.0000
     atom:    4    charge:   12.7743    magn:    2.6517    constr:    0.0000
     atom:    5    charge:    4.0888    magn:   -0.0203    constr:    0.0000

     total cpu time spent up to now is       80.8 secs

     total energy              =   -1345.13870785 Ry
     Harris-Foulkes estimate   =   -1345.13862515 Ry
     estimated scf accuracy    <       0.00088475 Ry

     total magnetization       =     7.12 Bohr mag/cell
     absolute magnetization    =     7.50 Bohr mag/cell

     iteration # 15     ecut=    70.00 Ry     beta=0.70
     Davidson diagonalization with overlap
     ethr =  6.22E-07,  avg # of iterations =  2.2

     negative rho (up, down):  0.000E+00 4.426E-04
 
     Magnetic moment per site:
     atom:    1    charge:   12.8382    magn:    1.4005    constr:    0.0000
     atom:    2    charge:   12.8382    magn:    1.4005    constr:    0.0000
     atom:    3    charge:   12.8382    magn:    1.4005    constr:    0.0000
     atom:    4    charge:   12.7743    magn:    2.6583    constr:    0.0000
     atom:    5    charge:    4.0903    magn:   -0.0179    constr:    0.0000

     total cpu time spent up to now is       86.0 secs

     total energy              =   -1345.13914999 Ry
     Harris-Foulkes estimate   =   -1345.13909773 Ry
     estimated scf accuracy    <       0.00042136 Ry

     total magnetization       =     7.32 Bohr mag/cell
     absolute magnetization    =     7.69 Bohr mag/cell

     iteration # 16     ecut=    70.00 Ry     beta=0.70
     Davidson diagonalization with overlap
     ethr =  6.11E-07,  avg # of iterations =  1.4

     negative rho (up, down):  0.000E+00 4.459E-04
 
     Magnetic moment per site:
     atom:    1    charge:   12.8363    magn:    1.4742    constr:    0.0000
     atom:    2    charge:   12.8363    magn:    1.4742    constr:    0.0000
     atom:    3    charge:   12.8363    magn:    1.4742    constr:    0.0000
     atom:    4    charge:   12.7737    magn:    2.6640    constr:    0.0000
     atom:    5    charge:    4.0933    magn:   -0.0101    constr:    0.0000

     total cpu time spent up to now is       90.3 secs

     total energy              =   -1345.13897538 Ry
     Harris-Foulkes estimate   =   -1345.13928766 Ry
     estimated scf accuracy    <       0.00013836 Ry

     total magnetization       =     7.44 Bohr mag/cell
     absolute magnetization    =     7.80 Bohr mag/cell

     iteration # 17     ecut=    70.00 Ry     beta=0.70
     Davidson diagonalization with overlap
     ethr =  2.01E-07,  avg # of iterations =  2.9

     negative rho (up, down):  0.000E+00 4.453E-04
 
     Magnetic moment per site:
     atom:    1    charge:   12.8346    magn:    1.5322    constr:    0.0000
     atom:    2    charge:   12.8346    magn:    1.5322    constr:    0.0000
     atom:    3    charge:   12.8346    magn:    1.5322    constr:    0.0000
     atom:    4    charge:   12.7736    magn:    2.6609    constr:    0.0000
     atom:    5    charge:    4.0960    magn:   -0.0027    constr:    0.0000

     total cpu time spent up to now is       95.9 secs

     total energy              =   -1345.13908562 Ry
     Harris-Foulkes estimate   =   -1345.13935313 Ry
     estimated scf accuracy    <       0.00004520 Ry

     total magnetization       =     7.65 Bohr mag/cell
     absolute magnetization    =     8.00 Bohr mag/cell

     iteration # 18     ecut=    70.00 Ry     beta=0.70
     Davidson diagonalization with overlap
     ethr =  6.55E-08,  avg # of iterations =  3.1

     negative rho (up, down):  0.000E+00 4.448E-04
 
     Magnetic moment per site:
     atom:    1    charge:   12.8346    magn:    1.5276    constr:    0.0000
     atom:    2    charge:   12.8346    magn:    1.5276    constr:    0.0000
     atom:    3    charge:   12.8346    magn:    1.5276    constr:    0.0000
     atom:    4    charge:   12.7735    magn:    2.6607    constr:    0.0000
     atom:    5    charge:    4.0959    magn:   -0.0027    constr:    0.0000

     total cpu time spent up to now is      102.1 secs

     total energy              =   -1345.13931395 Ry
     Harris-Foulkes estimate   =   -1345.13930104 Ry
     estimated scf accuracy    <       0.00007498 Ry

     total magnetization       =     7.79 Bohr mag/cell
     absolute magnetization    =     8.14 Bohr mag/cell

     iteration # 19     ecut=    70.00 Ry     beta=0.70
     Davidson diagonalization with overlap
     ethr =  6.55E-08,  avg # of iterations =  1.0

     negative rho (up, down):  0.000E+00 4.420E-04
 
     Magnetic moment per site:
     atom:    1    charge:   12.8344    magn:    1.5204    constr:    0.0000
     atom:    2    charge:   12.8344    magn:    1.5204    constr:    0.0000
     atom:    3    charge:   12.8344    magn:    1.5204    constr:    0.0000
     atom:    4    charge:   12.7735    magn:    2.6545    constr:    0.0000
     atom:    5    charge:    4.0962    magn:   -0.0012    constr:    0.0000

     total cpu time spent up to now is      106.7 secs

     total energy              =   -1345.13933320 Ry
     Harris-Foulkes estimate   =   -1345.13931669 Ry
     estimated scf accuracy    <       0.00005165 Ry

     total magnetization       =     7.78 Bohr mag/cell
     absolute magnetization    =     8.13 Bohr mag/cell

     iteration # 20     ecut=    70.00 Ry     beta=0.70
     Davidson diagonalization with overlap
     ethr =  6.55E-08,  avg # of iterations =  2.1

     negative rho (up, down):  0.000E+00 4.402E-04
 
     Magnetic moment per site:
     atom:    1    charge:   12.8348    magn:    1.4932    constr:    0.0000
     atom:    2    charge:   12.8348    magn:    1.4932    constr:    0.0000
     atom:    3    charge:   12.8348    magn:    1.4932    constr:    0.0000
     atom:    4    charge:   12.7735    magn:    2.6509    constr:    0.0000
     atom:    5    charge:    4.0955    magn:   -0.0026    constr:    0.0000

     total cpu time spent up to now is      111.8 secs

     total energy              =   -1345.13931689 Ry
     Harris-Foulkes estimate   =   -1345.13934583 Ry
     estimated scf accuracy    <       0.00001893 Ry

     total magnetization       =     7.76 Bohr mag/cell
     absolute magnetization    =     8.11 Bohr mag/cell

     iteration # 21     ecut=    70.00 Ry     beta=0.70
     Davidson diagonalization with overlap
     ethr =  2.74E-08,  avg # of iterations =  3.0

     negative rho (up, down):  0.000E+00 4.408E-04
 
     Magnetic moment per site:
     atom:    1    charge:   12.8351    magn:    1.4879    constr:    0.0000
     atom:    2    charge:   12.8351    magn:    1.4879    constr:    0.0000
     atom:    3    charge:   12.8351    magn:    1.4879    constr:    0.0000
     atom:    4    charge:   12.7736    magn:    2.6521    constr:    0.0000
     atom:    5    charge:    4.0951    magn:   -0.0035    constr:    0.0000

     total cpu time spent up to now is      118.1 secs

     total energy              =   -1345.13936545 Ry
     Harris-Foulkes estimate   =   -1345.13936601 Ry
     estimated scf accuracy    <       0.00000785 Ry

     total magnetization       =     7.69 Bohr mag/cell
     absolute magnetization    =     8.04 Bohr mag/cell

     iteration # 22     ecut=    70.00 Ry     beta=0.70
     Davidson diagonalization with overlap
     ethr =  1.14E-08,  avg # of iterations =  1.7

     negative rho (up, down):  0.000E+00 4.419E-04
 
     Magnetic moment per site:
     atom:    1    charge:   12.8355    magn:    1.4822    constr:    0.0000
     atom:    2    charge:   12.8355    magn:    1.4822    constr:    0.0000
     atom:    3    charge:   12.8355    magn:    1.4822    constr:    0.0000
     atom:    4    charge:   12.7736    magn:    2.6543    constr:    0.0000
     atom:    5    charge:    4.0946    magn:   -0.0044    constr:    0.0000

     total cpu time spent up to now is      122.9 secs

     total energy              =   -1345.13936508 Ry
     Harris-Foulkes estimate   =   -1345.13936798 Ry
     estimated scf accuracy    <       0.00000251 Ry

     total magnetization       =     7.68 Bohr mag/cell
     absolute magnetization    =     8.03 Bohr mag/cell

     iteration # 23     ecut=    70.00 Ry     beta=0.70
     Davidson diagonalization with overlap
     ethr =  3.64E-09,  avg # of iterations =  2.8

     negative rho (up, down):  0.000E+00 4.415E-04
 
     Magnetic moment per site:
     atom:    1    charge:   12.8354    magn:    1.4832    constr:    0.0000
     atom:    2    charge:   12.8354    magn:    1.4832    constr:    0.0000
     atom:    3    charge:   12.8354    magn:    1.4832    constr:    0.0000
     atom:    4    charge:   12.7736    magn:    2.6537    constr:    0.0000
     atom:    5    charge:    4.0948    magn:   -0.0040    constr:    0.0000

     total cpu time spent up to now is      128.4 secs

     total energy              =   -1345.13936850 Ry
     Harris-Foulkes estimate   =   -1345.13936868 Ry
     estimated scf accuracy    <       0.00000055 Ry

     total magnetization       =     7.66 Bohr mag/cell
     absolute magnetization    =     8.01 Bohr mag/cell

     iteration # 24     ecut=    70.00 Ry     beta=0.70
     Davidson diagonalization with overlap
     ethr =  7.98E-10,  avg # of iterations =  2.3

     negative rho (up, down):  0.000E+00 4.415E-04
 
     Magnetic moment per site:
     atom:    1    charge:   12.8354    magn:    1.4825    constr:    0.0000
     atom:    2    charge:   12.8354    magn:    1.4825    constr:    0.0000
     atom:    3    charge:   12.8354    magn:    1.4825    constr:    0.0000
     atom:    4    charge:   12.7735    magn:    2.6539    constr:    0.0000
     atom:    5    charge:    4.0947    magn:   -0.0041    constr:    0.0000

     total cpu time spent up to now is      133.4 secs

     total energy              =   -1345.13936871 Ry
     Harris-Foulkes estimate   =   -1345.13936872 Ry
     estimated scf accuracy    <       0.00000002 Ry

     total magnetization       =     7.67 Bohr mag/cell
     absolute magnetization    =     8.02 Bohr mag/cell

     iteration # 25     ecut=    70.00 Ry     beta=0.70
     Davidson diagonalization with overlap
     ethr =  3.24E-11,  avg # of iterations =  3.2

     negative rho (up, down):  0.000E+00 4.415E-04
 
     Magnetic moment per site:
     atom:    1    charge:   12.8354    magn:    1.4824    constr:    0.0000
     atom:    2    charge:   12.8354    magn:    1.4824    constr:    0.0000
     atom:    3    charge:   12.8354    magn:    1.4824    constr:    0.0000
     atom:    4    charge:   12.7736    magn:    2.6539    constr:    0.0000
     atom:    5    charge:    4.0947    magn:   -0.0041    constr:    0.0000

     total cpu time spent up to now is      139.0 secs

     End of self-consistent calculation

 ------ SPIN UP ------------


          k = 0.0000 0.0000 0.0000 (  3287 PWs)   bands (ev):

   -69.9469 -69.2665 -69.2116 -69.2116 -36.0027 -36.0027 -36.0027 -35.6174
   -35.6174 -35.6174 -35.1594 -35.1594 -35.1594 -35.1547 -35.1547 -35.1547
     0.3454  11.4294  13.3305  13.3305  13.3305  13.8429  13.8429  14.1089
    14.1089  14.1089  16.0956  16.0956  16.0956  17.2022  17.2022  17.8522
    17.8522  18.4060  18.4060  18.4060  18.4724  18.4724  18.4724  18.4750
    21.8908  23.7562

          k = 0.0000 0.0000 0.1111 (  3299 PWs)   bands (ev):

   -69.9468 -69.2651 -69.2131 -69.2117 -36.0018 -36.0018 -36.0014 -35.6164
   -35.6164 -35.6155 -35.1607 -35.1607 -35.1604 -35.1590 -35.1558 -35.1558
     0.4151  11.4867  12.9278  13.1110  13.1110  13.9224  13.9341  14.1611
    14.3474  14.3474  16.0310  16.1498  16.1498  17.2254  17.2616  17.8204
    17.8755  18.3198  18.3198  18.4053  18.4053  18.4059  18.4136  18.4710
    21.9669  23.2377

          k = 0.0000 0.0000 0.2222 (  3291 PWs)   bands (ev):

   -69.9465 -69.2610 -69.2174 -69.2116 -35.9993 -35.9993 -35.9978 -35.6134
   -35.6134 -35.6094 -35.1710 -35.1638 -35.1638 -35.1609 -35.1583 -35.1583
     0.6000  11.3386  12.5059  12.7682  12.7682  14.0846  14.1389  14.3128
    14.7542  14.7542  15.8481  16.2760  16.2760  17.1995  17.2901  17.7299
    17.7735  17.9599  17.9599  18.2462  18.4063  18.4081  18.4081  18.4683
    22.1806  22.5188

          k = 0.0000 0.0000 0.3333 (  3346 PWs)   bands (ev):

   -69.9464 -69.2555 -69.2235 -69.2118 -35.9969 -35.9969 -35.9947 -35.6105
   -35.6105 -35.6027 -35.1864 -35.1681 -35.1681 -35.1625 -35.1612 -35.1612
     0.8278  10.6703  12.4983  12.4983  12.8478  14.2008  14.4208  14.5462
    15.1461  15.1461  15.5792  16.3683  16.3683  16.9880  17.3251  17.3661
    17.5867  17.5867  17.6177  18.0233  18.4060  18.4198  18.4198  18.4648
    22.0470  22.5739

          k = 0.0000 0.0000 0.4444 (  3322 PWs)   bands (ev):

   -69.9461 -69.2500 -69.2290 -69.2118 -35.9949 -35.9949 -35.9920 -35.6080
   -35.6080 -35.5972 -35.1963 -35.1706 -35.1706 -35.1628 -35.1624 -35.1624
     0.9886  10.1837  12.3541  12.3541  13.4027  14.1275  14.6352  14.8121
    15.2908  15.4390  15.4390  16.3366  16.3366  16.7360  16.9484  17.3509
    17.3800  17.3800  17.6454  17.8101  18.4064  18.4346  18.4346  18.4632
    21.9139  22.7919

          k = 0.0000 0.1111 0.1111 (  3301 PWs)   bands (ev):

   -69.9467 -69.2637 -69.2138 -69.2125 -36.0021 -36.0008 -35.9992 -35.6275
   -35.6152 -35.6012 -35.1716 -35.1619 -35.1619 -35.1586 -35.1570 -35.1503
     0.4848  11.5405  12.6992  12.8579  12.9546  13.9997  14.0075  14.2162
    14.4904  14.5169  16.0075  16.1663  16.1964  17.2532  17.2769  17.7313
    17.7886  18.2319  18.2699  18.3254  18.3310  18.4164  18.4861  18.5493
    22.0274  23.4397

          k = 0.0000 0.1111 0.2222 (  3298 PWs)   bands (ev):

   -69.9465 -69.2597 -69.2177 -69.2128 -36.0006 -35.9984 -35.9960 -35.6351
   -35.6121 -35.5855 -35.1867 -35.1667 -35.1648 -35.1598 -35.1595 -35.1456
     0.6701  11.3597  12.2615  12.6640  12.6781  14.1607  14.2103  14.3661
    14.8177  14.8623  15.8456  16.2853  16.2929  17.1650  17.3282  17.4429
    17.5894  17.9170  18.1459  18.2041  18.2490  18.3899  18.5649  18.6882
    22.2057  22.6722

          k = 0.0000 0.1111 0.3333 (  3308 PWs)   bands (ev):

   -69.9462 -69.2541 -69.2236 -69.2128 -35.9979 -35.9958 -35.9936 -35.6391
   -35.6086 -35.5716 -35.2021 -35.1719 -35.1685 -35.1624 -35.1618 -35.1434
     0.8984  10.6622  12.1394  12.4172  12.9478  14.2860  14.4896  14.5951
    15.1787  15.2183  15.5840  16.2954  16.3974  16.9343  17.1024  17.2708
    17.4952  17.5628  17.8623  18.0793  18.1863  18.3835  18.6359  18.6812
    22.2646  22.4530

          k = 0.0000 0.1111 0.4444 (  3317 PWs)   bands (ev):

   -69.9461 -69.2489 -69.2290 -69.2128 -35.9956 -35.9940 -35.9927 -35.6404
   -35.6062 -35.5635 -35.2119 -35.1752 -35.1713 -35.1641 -35.1633 -35.1427
     1.0596  10.1722  12.0387  12.2818  13.4714  14.2222  14.7047  14.8616
    15.2941  15.4629  15.4856  16.1409  16.3945  16.6673  16.8688  17.2607
    17.3611  17.4706  17.7138  17.9052  18.1497  18.3814  18.6586  18.6817
    22.1461  22.6149

          k = 0.0000 0.2222 0.2222 (  3289 PWs)   bands (ev):

   -69.9462 -69.2560 -69.2194 -69.2148 -36.0006 -35.9962 -35.9940 -35.6535
   -35.6086 -35.5601 -35.2079 -35.1694 -35.1670 -35.1631 -35.1613 -35.1319
     0.8563  11.2956  11.5686  12.4420  12.7915  14.3612  14.3873  14.5087
    15.0178  15.1138  15.7638  16.2788  16.3668  17.0282  17.0327  17.3158
    17.4635  17.7478  18.0408  18.0956  18.2641  18.3407  18.7148  19.0002
    22.1186  23.0013

          k = 0.0000 0.2222 0.3333 (  3308 PWs)   bands (ev):

   -69.9460 -69.2508 -69.2241 -69.2158 -35.9995 -35.9939 -35.9934 -35.6663
   -35.6047 -35.5395 -35.2261 -35.1723 -35.1707 -35.1665 -35.1637 -35.1230
     1.0862  10.6294  11.3688  12.2345  13.1823  14.5198  14.6649  14.7199
    15.2824  15.3944  15.5619  16.0698  16.5001  16.7629  16.8137  17.1071
    17.4804  17.6408  17.8089  17.9644  18.2027  18.3574  18.8414  19.0347
    21.9485  22.8263

          k = 0.0000 0.2222 0.4444 (  3326 PWs)   bands (ev):

   -69.9459 -69.2457 -69.2292 -69.2161 -35.9974 -35.9946 -35.9924 -35.6724
   -35.6022 -35.5280 -35.2366 -35.1744 -35.1734 -35.1685 -35.1654 -35.1188
     1.2489  10.1379  11.3043  12.1158  13.6819  14.4721  14.8946  14.9717
    15.3030  15.4998  15.6037  15.8259  16.5562  16.5571  16.6165  17.1015
    17.3031  17.5344  17.8811  17.8850  18.1834  18.2171  18.9177  18.9680
    21.9158  22.7484

          k = 0.0000 0.3333 0.3333 (  3289 PWs)   bands (ev):

   -69.9458 -69.2458 -69.2256 -69.2192 -35.9996 -35.9947 -35.9915 -35.6854
   -35.6000 -35.5143 -35.2454 -35.1730 -35.1723 -35.1708 -35.1660 -35.1082
     1.3186  10.5593  10.5972  12.0552  13.5762  14.8421  14.8471  14.8921
    15.4178  15.4642  15.5993  15.7442  16.5605  16.6531  16.6625  16.9037
    17.3330  17.6153  17.7648  17.9106  18.0498  18.5535  19.0096  19.1803
    21.2695  23.3584

          k = 0.0000 0.3333 0.4444 (  3312 PWs)   bands (ev):

   -69.9457 -69.2407 -69.2293 -69.2208 -35.9989 -35.9969 -35.9903 -35.6957
   -35.5972 -35.5004 -35.2564 -35.1754 -35.1734 -35.1723 -35.1680 -35.1006
     1.4835  10.0912  10.5363  11.9498  14.0245  14.8023  15.0887  15.1319
    15.2991  15.5137  15.5618  15.7509  16.4068  16.4789  16.7822  16.8365
    17.2082  17.4057  17.6270  17.9799  18.1790  18.5868  19.1077  19.1354
    20.9118  23.4513

          k = 0.0000 0.4444 0.4444 (  3301 PWs)   bands (ev):

   -69.9456 -69.2351 -69.2297 -69.2259 -35.9995 -35.9987 -35.9888 -35.7079
   -35.5939 -35.4852 -35.2672 -35.1768 -35.1765 -35.1708 -35.1699 -35.0910
     1.6504  10.0570  10.0576  11.8511  14.3704  15.0278  15.1896  15.2574
    15.2628  15.4124  15.5786  15.8638  16.3191  16.4008  16.5815  16.9918
    17.1184  17.2407  17.4157  17.8636  18.3892  18.9503  19.1810  19.2175
    20.1351  24.0005

          k = 0.1111 0.1111 0.1111 (  3299 PWs)   bands (ev):

   -69.9466 -69.2623 -69.2139 -69.2139 -36.0015 -36.0015 -35.9969 -35.6396
   -35.6001 -35.6001 -35.1747 -35.1708 -35.1708 -35.1517 -35.1506 -35.1506
     0.5547  11.5905  12.5645  12.5645  12.8369  14.0755  14.0755  14.3933
    14.3933  14.7374  15.9924  16.2060  16.2060  17.2716  17.2716  17.6696
    17.6696  17.9969  18.1302  18.3506  18.3506  18.4270  18.6473  18.6473
    22.0774  23.5642

          k = 0.1111 0.1111 0.2222 (  3308 PWs)   bands (ev):

   -69.9464 -69.2585 -69.2179 -69.2139 -36.0004 -35.9998 -35.9940 -35.6520
   -35.5974 -35.5800 -35.1910 -35.1814 -35.1727 -35.1524 -35.1474 -35.1450
     0.7403  11.3718  12.1442  12.2988  12.7606  14.2361  14.2813  14.4662
    14.7656  15.0167  15.8480  16.2888  16.2993  17.1816  17.2992  17.3889
    17.4128  17.7685  17.9333  18.2237  18.3515  18.3634  18.8077  18.8385
    22.2237  22.8370

          k = 0.1111 0.1111 0.3333 (  3313 PWs)   bands (ev):

   -69.9462 -69.2530 -69.2237 -69.2140 -35.9978 -35.9978 -35.9921 -35.6596
   -35.5941 -35.5628 -35.2073 -35.1900 -35.1738 -35.1540 -35.1481 -35.1410
     0.9692  10.6470  12.0651  12.0779  13.0402  14.3672  14.5584  14.6686
    15.1746  15.2841  15.5946  16.2820  16.3483  16.9215  17.0758  17.1168
    17.4363  17.6111  17.7102  18.0957  18.2570  18.3400  18.6865  18.9976
    22.4215  22.4461

          k = 0.1111 0.1111 0.4444 (  3322 PWs)   bands (ev):

   -69.9460 -69.2478 -69.2291 -69.2139 -35.9965 -35.9948 -35.9924 -35.6631
   -35.5919 -35.5527 -35.2174 -35.1951 -35.1745 -35.1552 -35.1497 -35.1390
     1.1309  10.1552  11.9352  12.0088  13.5386  14.3102  14.7747  14.9271
    15.3044  15.4589  15.5346  16.0790  16.2819  16.6304  16.9719  17.1023
    17.3395  17.5042  17.7152  17.9363  18.1911  18.3297  18.5288  19.0887
    22.3398  22.5649

          k = 0.1111 0.2222 0.2222 (  3305 PWs)   bands (ev):

   -69.9462 -69.2549 -69.2195 -69.2161 -36.0008 -35.9989 -35.9917 -35.6721
   -35.5883 -35.5593 -35.2090 -35.1863 -35.1829 -35.1481 -35.1469 -35.1322
     0.9270  11.2979  11.4901  12.0710  12.8975  14.4317  14.4603  14.6347
    14.9426  15.2125  15.7739  16.2736  16.3444  17.0365  17.0974  17.2193
    17.4010  17.5490  17.7283  18.2543  18.2560  18.3286  19.0830  19.1160
    22.1923  23.1090

          k = 0.1111 0.2222 0.3333 (  3305 PWs)   bands (ev):

   -69.9460 -69.2498 -69.2241 -69.2168 -35.9998 -35.9974 -35.9910 -35.6863
   -35.5838 -35.5380 -35.2264 -35.1950 -35.1850 -35.1488 -35.1457 -35.1231
     1.1578  10.5991  11.3123  11.9159  13.2677  14.5810  14.7318  14.8372
    15.2674  15.3805  15.5873  16.1062  16.3763  16.7700  16.9176  17.0364
    17.4470  17.4836  17.6202  18.1584  18.2042  18.2607  19.0021  19.3387
    22.0598  22.8888

          k = 0.1111 0.2222 0.4444 (  3318 PWs)   bands (ev):

   -69.9459 -69.2447 -69.2292 -69.2169 -35.9984 -35.9964 -35.9919 -35.6937
   -35.5813 -35.5257 -35.2366 -35.2007 -35.1855 -35.1496 -35.1457 -35.1187
     1.3212  10.1084  11.2423  11.8229  13.7379  14.5322  14.9633  15.0747
    15.3071  15.4824  15.6075  15.8688  16.3033  16.5480  16.8817  16.9724
    17.3079  17.4531  17.8020  18.0568  18.1069  18.2392  18.7481  19.4798
    22.0183  22.8383

          k = 0.1111 0.3333 0.3333 (  3313 PWs)   bands (ev):

   -69.9458 -69.2451 -69.2257 -69.2200 -36.0007 -35.9976 -35.9911 -35.7065
   -35.5784 -35.5139 -35.2447 -35.1965 -35.1936 -35.1471 -35.1455 -35.1084
     1.3914  10.5253  10.5404  11.7581  13.6381  14.8261  14.9074  15.0722
    15.3336  15.4756  15.5732  15.9089  16.3714  16.6410  16.7573  16.9634
    17.3325  17.3410  17.8006  18.0178  18.1147  18.3454  19.2290  19.4726
    21.3650  23.2591

          k = 0.1111 0.3333 0.4444 (  3306 PWs)   bands (ev):

   -69.9457 -69.2401 -69.2293 -69.2214 -36.0000 -35.9985 -35.9913 -35.7171
   -35.5754 -35.4999 -35.2548 -35.2007 -35.1948 -35.1468 -35.1455 -35.1006
     1.5574  10.0500  10.4845  11.6637  14.0432  14.7981  15.0945  15.2901
    15.2980  15.5130  15.5660  15.9219  16.2946  16.4509  16.7329  16.9257
    17.2083  17.3158  17.8630  17.9818  18.0362  18.4948  19.0226  19.6638
    20.9578  23.3851

          k = 0.1111 0.4444 0.4444 (  3311 PWs)   bands (ev):

   -69.9456 -69.2348 -69.2297 -69.2263 -36.0008 -36.0001 -35.9912 -35.7296
   -35.5724 -35.4852 -35.2650 -35.2007 -35.2002 -35.1458 -35.1456 -35.0911
     1.7256  10.0087  10.0106  11.5689  14.3255  14.9848  15.0488  15.2079
    15.5496  15.5557  15.6335  16.0580  16.2609  16.3668  16.5089  16.9291
    17.1790  17.2263  17.6808  17.9402  18.0908  18.8838  19.1762  19.7043
    20.1240  23.7388

          k = 0.2222 0.2222 0.2222 (  3305 PWs)   bands (ev):

   -69.9460 -69.2517 -69.2194 -69.2194 -36.0008 -36.0008 -35.9900 -35.6977
   -35.5570 -35.5570 -35.2166 -35.1994 -35.1994 -35.1350 -35.1350 -35.1304
     1.1154  11.2718  11.3123  11.3123  13.1153  14.6260  14.6260  14.9455
    14.9455  15.3078  15.7349  16.2836  16.2836  16.9740  16.9740  17.2879
    17.2879  17.2969  17.4331  18.2348  18.2348  18.3890  19.4198  19.4198
    22.2864  23.0643

          k = 0.2222 0.2222 0.3333 (  3303 PWs)   bands (ev):

   -69.9459 -69.2470 -69.2243 -69.2194 -36.0008 -36.0007 -35.9906 -35.7168
   -35.5543 -35.5310 -35.2306 -35.2124 -35.2020 -35.1348 -35.1271 -35.1212
     1.3488  10.5180  11.1365  11.2366  13.4809  14.7373  14.8956  15.1041
    15.2953  15.2996  15.6721  16.1521  16.2385  16.7289  16.7909  17.1868
    17.1903  17.3822  17.5263  18.1680  18.2258  18.3235  19.2469  19.7688
    22.2516  22.6963

          k = 0.2222 0.2222 0.4444 (  3315 PWs)   bands (ev):

   -69.9458 -69.2422 -69.2292 -69.2194 -36.0009 -35.9992 -35.9927 -35.7270
   -35.5525 -35.5165 -35.2397 -35.2196 -35.2024 -35.1354 -35.1237 -35.1159
     1.5145  10.0336  11.0329  11.1947  13.8869  14.6677  15.1511  15.1516
    15.4069  15.4957  15.6152  15.9912  16.1882  16.5018  16.7762  17.0118
    17.1514  17.5650  17.7288  18.1028  18.2034  18.2481  18.8160  20.0187
    22.2633  22.3787

          k = 0.2222 0.3333 0.3333 (  3302 PWs)   bands (ev):

   -69.9457 -69.2428 -69.2256 -69.2223 -36.0024 -36.0017 -35.9924 -35.7407
   -35.5418 -35.5126 -35.2426 -35.2176 -35.2140 -35.1260 -35.1244 -35.1084
     1.5861  10.4060  10.4383  11.0633  13.7856  14.8963  15.0006  15.1572
    15.4074  15.4606  15.8047  16.1070  16.2180  16.6186  16.6387  16.9672
    17.3092  17.3538  17.6515  18.1591  18.2386  18.2891  19.4078  19.9230
    21.6345  22.6920

          k = 0.2222 0.3333 0.4444 (  3307 PWs)   bands (ev):

   -69.9456 -69.2384 -69.2292 -69.2231 -36.0029 -36.0019 -35.9949 -35.7535
   -35.5385 -35.4985 -35.2509 -35.2235 -35.2155 -35.1255 -35.1206 -35.1007
     1.7554   9.9491  10.3590  10.9840  14.0748  14.8080  15.0307  15.2270
    15.4938  15.7183  15.8785  16.1664  16.1926  16.4276  16.6248  16.8090
    17.2908  17.5172  17.7809  18.1126  18.1761  18.3941  19.0320  20.2525
    21.0575  22.6469

          k = 0.2222 0.4444 0.4444 (  3304 PWs)   bands (ev):

   -69.9456 -69.2340 -69.2297 -69.2271 -36.0037 -36.0035 -35.9969 -35.7679
   -35.5340 -35.4849 -35.2590 -35.2233 -35.2226 -35.1206 -35.1203 -35.0910
     1.9275   9.8911   9.8984  10.8938  14.2123  14.9011  14.9531  15.0922
    15.6761  16.0051  16.1171  16.2072  16.2682  16.4030  16.5164  16.6647
    17.4119  17.4466  17.8269  17.9893  18.1071  18.7705  19.1526  19.9450
    20.4436  22.9049

          k = 0.3333 0.3333 0.3333 (  3296 PWs)   bands (ev):

   -69.9456 -69.2394 -69.2256 -69.2256 -36.0045 -36.0045 -35.9960 -35.7684
   -35.5111 -35.5111 -35.2436 -35.2294 -35.2294 -35.1108 -35.1108 -35.1063
     1.8291  10.2660  10.2660  10.4031  13.9596  14.9453  14.9979  14.9979
    15.6731  15.6731  16.1381  16.2227  16.2227  16.5797  16.5797  16.7421
    17.4784  17.5640  17.5640  18.2104  18.2104  18.3495  19.7585  19.7585
    21.9480  21.9480

          k = 0.3333 0.3333 0.4444 (  3311 PWs)   bands (ev):

   -69.9456 -69.2359 -69.2293 -69.2256 -36.0060 -36.0052 -35.9997 -35.7834
   -35.5104 -35.4944 -35.2487 -35.2376 -35.2308 -35.1099 -35.1033 -35.0993
     2.0032   9.8400  10.1808  10.3028  14.0897  14.8162  14.9357  15.0690
    15.7138  15.9725  16.2232  16.3017  16.3791  16.5481  16.5902  16.7109
    17.4870  17.6906  17.7266  18.2288  18.2949  18.3255  19.0914  20.2732
    21.0628  21.9494

          k = 0.3333 0.4444 0.4444 (  3300 PWs)   bands (ev):

   -69.9455 -69.2327 -69.2297 -69.2282 -36.0072 -36.0071 -36.0034 -35.7997
   -35.5020 -35.4846 -35.2525 -35.2393 -35.2386 -35.1015 -35.1012 -35.0910
     2.1814   9.7664   9.7786  10.1670  14.0902  14.8269  14.8811  14.9464
    15.8688  16.0672  16.2561  16.2680  16.4517  16.8129  16.8193  16.9928
    17.6365  17.6658  17.7551  18.2145  18.2668  18.5548  19.0791  19.6225
    20.9407  21.9340

          k = 0.4444 0.4444 0.4444 (  3310 PWs)   bands (ev):

   -69.9455 -69.2314 -69.2296 -69.2296 -36.0094 -36.0094 -36.0080 -35.8174
   -35.4845 -35.4845 -35.2492 -35.2470 -35.2470 -35.0914 -35.0914 -35.0905
     2.3647   9.6894   9.6894   9.7178  14.0154  14.7959  14.8365  14.8365
    16.0156  16.0156  16.2678  16.2678  16.3347  17.4500  17.4500  17.4779
    17.7495  17.7495  17.9076  18.3211  18.3211  18.3245  18.9441  18.9441
    21.2480  21.2480

 ------ SPIN DOWN ----------


          k = 0.0000 0.0000 0.0000 (  3287 PWs)   bands (ev):

   -67.3743 -67.3125 -67.3125 -66.5393 -33.9926 -33.9926 -33.9926 -33.2365
   -33.2365 -33.2365 -33.1967 -33.1967 -33.1967 -32.6416 -32.6416 -32.6416
     0.4452  11.7293  13.3939  13.3939  13.3939  15.2115  15.2115  15.5332
    15.5332  15.5332  18.0402  18.0402  18.0402  18.7041  18.7041  20.2815
    20.2815  20.2815  20.4089  20.4089  20.5100  20.8731  20.8731  20.8731
    23.0631  23.9627

          k = 0.0000 0.0000 0.1111 (  3299 PWs)   bands (ev):

   -67.3725 -67.3142 -67.3126 -66.5395 -33.9915 -33.9915 -33.9911 -33.2365
   -33.2354 -33.2354 -33.1980 -33.1980 -33.1977 -32.6445 -32.6428 -32.6428
     0.5142  11.7601  13.0937  13.2803  13.2803  15.2715  15.3108  15.5903
    15.6863  15.6863  17.9625  18.1028  18.1028  18.7105  18.8010  20.2353
    20.2353  20.2814  20.3483  20.3648  20.4469  20.6222  20.6222  20.8729
    23.1046  23.6091

          k = 0.0000 0.0000 0.2222 (  3291 PWs)   bands (ev):

   -67.3676 -67.3188 -67.3126 -66.5397 -33.9885 -33.9885 -33.9865 -33.2372
   -33.2327 -33.2327 -33.2011 -33.2011 -33.1984 -32.6513 -32.6458 -32.6458
     0.6969  11.5216  12.8552  13.0411  13.0411  15.3365  15.5865  15.7539
    16.0356  16.0356  17.7472  18.2767  18.2767  18.7201  18.8139  19.9897
    19.9897  20.1254  20.1432  20.2204  20.2204  20.2819  20.3765  20.8730
    23.0990  23.2962

          k = 0.0000 0.0000 0.3333 (  3346 PWs)   bands (ev):

   -67.3609 -67.3257 -67.3129 -66.5403 -33.9854 -33.9854 -33.9823 -33.2390
   -33.2302 -33.2302 -33.2048 -33.2048 -33.2002 -32.6604 -32.6497 -32.6497
     0.9212  10.8626  12.8200  12.8200  13.2727  15.2201  15.9603  15.9946
    16.4083  16.4083  17.4481  18.5179  18.5179  18.5887  18.7023  19.4693
    19.4693  19.7692  19.8260  20.0515  20.0515  20.2817  20.3214  20.8726
    22.9359  23.5434

          k = 0.0000 0.0000 0.4444 (  3322 PWs)   bands (ev):

   -67.3541 -67.3321 -67.3128 -66.5403 -33.9829 -33.9829 -33.9788 -33.2396
   -33.2279 -33.2279 -33.2068 -33.2068 -33.2006 -32.6657 -32.6516 -32.6516
     1.0790  10.3965  12.6946  12.6946  13.9358  14.7958  16.2258  16.2623
    16.6606  16.6606  17.1801  18.4152  18.6440  18.7643  18.7643  19.0536
    19.0536  19.4987  19.6034  19.9420  19.9420  20.2821  20.2852  20.8728
    22.9017  23.7475

          k = 0.0000 0.1111 0.1111 (  3301 PWs)   bands (ev):

   -67.3709 -67.3150 -67.3135 -66.5396 -34.0042 -33.9903 -33.9758 -33.2404
   -33.2343 -33.2333 -33.2031 -33.1993 -33.1921 -32.6481 -32.6441 -32.6425
     0.5831  11.7921  12.8615  13.1401  13.1793  15.3476  15.3821  15.6563
    15.8142  15.8151  17.9264  18.1253  18.1572  18.7517  18.7962  20.1515
    20.1880  20.2144  20.2570  20.3574  20.4301  20.5248  20.5328  20.7770
    23.1396  23.8596

          k = 0.0000 0.1111 0.2222 (  3298 PWs)   bands (ev):

   -67.3660 -67.3192 -67.3138 -66.5398 -34.0135 -33.9873 -33.9598 -33.2474
   -33.2314 -33.2309 -33.2066 -33.2024 -33.1871 -32.6543 -32.6470 -32.6445
     0.7660  11.5466  12.5123  12.9602  13.0786  15.4226  15.6395  15.8230
    16.1190  16.1282  17.7347  18.2823  18.2968  18.6945  18.7299  19.8209
    19.9568  19.9626  20.0872  20.2031  20.3613  20.3776  20.4818  20.7421
    23.2074  23.4017

          k = 0.0000 0.1111 0.3333 (  3308 PWs)   bands (ev):

   -67.3593 -67.3257 -67.3139 -66.5401 -34.0194 -33.9839 -33.9464 -33.2546
   -33.2286 -33.2285 -33.2089 -33.2056 -33.1839 -32.6604 -32.6505 -32.6483
     0.9906  10.8684  12.4334  12.7527  13.4041  15.3141  16.0067  16.0646
    16.4575  16.4680  17.4443  18.3447  18.4935  18.5276  18.6581  19.4847
    19.5010  19.7217  19.8945  19.9363  20.2473  20.3621  20.3845  20.7429
    23.1207  23.4629

          k = 0.0000 0.1111 0.4444 (  3317 PWs)   bands (ev):

   -67.3529 -67.3320 -67.3139 -66.5403 -34.0221 -33.9816 -33.9388 -33.2590
   -33.2270 -33.2265 -33.2102 -33.2079 -33.1827 -32.6640 -32.6529 -32.6512
     1.1488  10.3979  12.3622  12.6334  14.0109  14.9069  16.3028  16.3035
    16.6879  16.7028  17.1807  18.1826  18.3304  18.7853  18.7920  19.0856
    19.3054  19.5820  19.6180  19.8215  20.1418  20.3060  20.3640  20.7444
    23.1033  23.5990

          k = 0.0000 0.2222 0.2222 (  3289 PWs)   bands (ev):

   -67.3616 -67.3209 -67.3161 -66.5399 -34.0347 -33.9843 -33.9332 -33.2633
   -33.2307 -33.2286 -33.2104 -33.2051 -33.1726 -32.6582 -32.6501 -32.6441
     0.9494  11.4994  11.8219  12.7769  13.2525  15.6160  15.7751  15.9968
    16.3296  16.3633  17.6311  18.2677  18.3689  18.5062  18.5785  19.6843
    19.7682  19.8192  19.9183  20.0939  20.4446  20.4471  20.5174  20.6844
    23.1193  23.9540

          k = 0.0000 0.2222 0.3333 (  3308 PWs)   bands (ev):

   -67.3554 -67.3261 -67.3171 -66.5402 -34.0501 -33.9811 -33.9123 -33.2773
   -33.2307 -33.2253 -33.2147 -33.2088 -33.1616 -32.6601 -32.6539 -32.6467
     1.1751  10.8718  11.6507  12.5960  13.6646  15.5708  16.0789  16.2375
    16.5924  16.6212  17.4056  17.9804  18.2657  18.5836  18.5883  19.5193
    19.5368  19.7121  19.7440  19.8921  20.4109  20.4118  20.4837  20.6805
    23.0117  23.7347

          k = 0.0000 0.2222 0.4444 (  3326 PWs)   bands (ev):

   -67.3494 -67.3319 -67.3175 -66.5405 -34.0579 -33.9791 -33.9009 -33.2850
   -33.2299 -33.2235 -33.2184 -33.2109 -33.1560 -32.6597 -32.6565 -32.6502
     1.3342  10.3960  11.6135  12.4893  14.2195  15.2011  16.3428  16.4874
    16.7629  16.8471  17.1764  17.7086  18.1339  18.6112  18.8660  19.1784
    19.3752  19.6203  19.6732  19.8143  20.3952  20.4169  20.4745  20.5134
    23.0488  23.6573

          k = 0.0000 0.3333 0.3333 (  3289 PWs)   bands (ev):

   -67.3497 -67.3277 -67.3208 -66.5403 -34.0721 -33.9777 -33.8861 -33.2948
   -33.2327 -33.2217 -33.2217 -33.2117 -33.1440 -32.6578 -32.6574 -32.6467
     1.4025  10.8317  10.8967  12.4367  14.0768  15.8694  16.0273  16.4605
    16.7894  16.7994  17.2936  17.6325  18.0633  18.5074  18.7328  19.3588
    19.5314  19.5337  19.7321  19.9255  20.1472  20.5077  20.5128  20.8569
    22.5359  24.3137

          k = 0.0000 0.3333 0.4444 (  3312 PWs)   bands (ev):

   -67.3440 -67.3318 -67.3226 -66.5405 -34.0841 -33.9758 -33.8720 -33.3048
   -33.2335 -33.2277 -33.2197 -33.2140 -33.1346 -32.6602 -32.6545 -32.6491
     1.5633  10.3850  10.8473  12.3410  14.5582  15.6044  16.2214  16.6893
    16.8592  17.0669  17.1533  17.3667  17.9794  18.4021  18.9743  19.2073
    19.2661  19.5025  19.5857  20.0358  20.0968  20.5245  20.5912  20.7756
    22.3312  24.3168

          k = 0.0000 0.4444 0.4444 (  3301 PWs)   bands (ev):

   -67.3379 -67.3321 -67.3280 -66.5405 -34.0979 -33.9736 -33.8563 -33.3152
   -33.2356 -33.2339 -33.2172 -33.2160 -33.1229 -32.6626 -32.6506 -32.6489
     1.7255  10.3715  10.3755  12.2513  14.9242  15.9633  15.9833  16.8459
    16.9116  16.9151  17.1172  17.5511  17.9115  18.1330  19.0465  19.0609
    19.3041  19.4731  19.5342  19.7161  20.2639  20.5371  20.7782  20.8770
    21.8704  24.8267

          k = 0.1111 0.1111 0.1111 (  3299 PWs)   bands (ev):

   -67.3692 -67.3150 -67.3150 -66.5397 -34.0175 -33.9746 -33.9746 -33.2413
   -33.2362 -33.2362 -33.2010 -33.2010 -33.1882 -32.6517 -32.6434 -32.6434
     0.6521  11.8249  12.7765  12.7765  13.1931  15.4356  15.4356  15.7974
    15.7974  15.9795  17.8990  18.1700  18.1700  18.7703  18.7703  20.0052
    20.1186  20.1424  20.1424  20.4002  20.4002  20.4019  20.6849  20.6849
    23.1809  24.0638

          k = 0.1111 0.1111 0.2222 (  3308 PWs)   bands (ev):

   -67.3645 -67.3195 -67.3151 -66.5399 -34.0319 -33.9720 -33.9541 -33.2487
   -33.2434 -33.2342 -33.2013 -33.1985 -33.1827 -32.6576 -32.6457 -32.6449
     0.8352  11.5665  12.4032  12.5853  13.2017  15.5079  15.6966  15.9209
    16.1315  16.2320  17.7283  18.2742  18.2891  18.6800  18.6803  19.6487
    19.7875  19.9254  19.9931  20.2985  20.4488  20.4710  20.5383  20.7288
    23.2584  23.5530

          k = 0.1111 0.1111 0.3333 (  3313 PWs)   bands (ev):

   -67.3579 -67.3258 -67.3152 -66.5402 -34.0418 -33.9688 -33.9372 -33.2569
   -33.2511 -33.2296 -33.1995 -33.1982 -33.1787 -32.6616 -32.6495 -32.6482
     1.0602  10.8680  12.3692  12.3982  13.5164  15.4068  16.0640  16.1441
    16.4743  16.5163  17.4472  18.2332  18.3239  18.6232  18.6583  19.2559
    19.5471  19.7161  19.8099  20.1294  20.3500  20.3767  20.5329  20.6687
    23.2547  23.4787

          k = 0.1111 0.1111 0.4444 (  3322 PWs)   bands (ev):

   -67.3517 -67.3320 -67.3152 -66.5404 -34.0467 -33.9667 -33.9276 -33.2619
   -33.2559 -33.2256 -33.1997 -33.1980 -33.1766 -32.6626 -32.6543 -32.6499
     1.2188  10.3941  12.2885  12.3286  14.0824  15.0151  16.3643  16.3811
    16.6152  16.8198  17.1843  17.9900  18.2136  18.7870  18.8088  19.0191
    19.2799  19.6468  19.6877  20.0043  20.1054  20.3072  20.5531  20.6476
    23.2678  23.5686

          k = 0.1111 0.2222 0.2222 (  3305 PWs)   bands (ev):

   -67.3603 -67.3211 -67.3174 -66.5401 -34.0548 -33.9632 -33.9325 -33.2640
   -33.2454 -33.2444 -33.1964 -33.1933 -33.1713 -32.6615 -32.6474 -32.6444
     1.0190  11.5142  11.7659  12.3863  13.3768  15.7053  15.8419  16.1105
    16.3310  16.3847  17.6415  18.2107  18.2625  18.5892  18.6015  19.4326
    19.5357  19.8342  19.8433  20.2435  20.4424  20.4851  20.7324  20.8287
    23.2304  23.9480

          k = 0.1111 0.2222 0.3333 (  3305 PWs)   bands (ev):

   -67.3543 -67.3261 -67.3182 -66.5403 -34.0718 -33.9591 -33.9110 -33.2786
   -33.2551 -33.2433 -33.1934 -33.1910 -33.1608 -32.6626 -32.6502 -32.6464
     1.2453  10.8573  11.6111  12.2602  13.7632  15.6589  16.1564  16.3299
    16.5271  16.6650  17.4265  17.9411  18.1447  18.6003  18.6605  19.2789
    19.3038  19.7075  19.8068  20.0893  20.3807  20.4343  20.7264  20.8355
    23.1214  23.7700

          k = 0.1111 0.2222 0.4444 (  3318 PWs)   bands (ev):

   -67.3484 -67.3319 -67.3184 -66.5405 -34.0808 -33.9570 -33.8988 -33.2869
   -33.2611 -33.2422 -33.1918 -33.1909 -33.1552 -32.6599 -32.6548 -32.6486
     1.4051  10.3799  11.5680  12.1827  14.2844  15.2986  16.4062  16.5680
    16.6595  16.9773  17.1961  17.6114  18.0536  18.6263  18.8408  19.0775
    19.1796  19.7033  19.8063  19.9539  20.3193  20.3834  20.4886  20.8708
    23.1471  23.7264

          k = 0.1111 0.3333 0.3333 (  3313 PWs)   bands (ev):

   -67.3490 -67.3278 -67.3217 -66.5404 -34.0950 -33.9549 -33.8860 -33.2974
   -33.2578 -33.2546 -33.1905 -33.1887 -33.1438 -32.6615 -32.6515 -32.6464
     1.4738  10.8120  10.8543  12.1288  14.1561  15.9515  16.0743  16.5536
    16.6816  16.8731  17.3272  17.6485  17.9838  18.5069  18.7402  19.0979
    19.3930  19.5431  19.9243  19.9244  20.2626  20.4111  20.8978  20.9774
    22.5963  24.2111

          k = 0.1111 0.3333 0.4444 (  3306 PWs)   bands (ev):

   -67.3433 -67.3317 -67.3232 -66.5405 -34.1072 -33.9526 -33.8715 -33.3075
   -33.2636 -33.2567 -33.1889 -33.1881 -33.1343 -32.6594 -32.6520 -32.6477
     1.6354  10.3566  10.8087  12.0478  14.6058  15.6796  16.2451  16.7771
    16.8632  17.0628  17.1781  17.4112  17.9279  18.4035  18.8148  18.9911
    19.3565  19.5852  19.7342  19.9970  20.1418  20.5090  20.7316  21.0721
    22.3523  24.2448

          k = 0.1111 0.4444 0.4444 (  3311 PWs)   bands (ev):

   -67.3376 -67.3321 -67.3285 -66.5406 -34.1214 -33.9504 -33.8563 -33.3185
   -33.2657 -33.2651 -33.1877 -33.1874 -33.1230 -32.6601 -32.6491 -32.6478
     1.7987  10.3369  10.3384  11.9653  14.9348  16.0005  16.0403  16.8477
    16.9394  17.0017  17.1572  17.6200  17.8805  18.1381  18.6856  19.0344
    19.4385  19.5805  19.6275  19.9205  19.9913  20.7268  20.8647  21.1304
    21.8241  24.5855

          k = 0.2222 0.2222 0.2222 (  3305 PWs)   bands (ev):

   -67.3566 -67.3210 -67.3210 -66.5402 -34.0835 -33.9306 -33.9306 -33.2665
   -33.2665 -33.2639 -33.1804 -33.1804 -33.1653 -32.6646 -32.6450 -32.6450
     1.2040  11.5055  11.6327  11.6327  13.6127  15.9666  15.9666  16.3811
    16.3958  16.3958  17.6136  18.0857  18.0857  18.6335  18.6335  19.2206
    19.2265  19.7417  19.7417  20.3380  20.4374  20.4374  21.0801  21.0801
    23.3972  23.8160

          k = 0.2222 0.2222 0.3333 (  3303 PWs)   bands (ev):

   -67.3511 -67.3263 -67.3210 -66.5403 -34.1055 -33.9284 -33.9041 -33.2835
   -33.2811 -33.2666 -33.1754 -33.1699 -33.1560 -32.6636 -32.6465 -32.6454
     1.4323  10.8140  11.4935  11.5398  14.0023  15.8928  16.3484  16.3805
    16.5658  16.7438  17.4593  17.8193  17.9646  18.6053  18.6850  18.9736
    19.2138  19.6816  19.7901  20.2382  20.3911  20.4175  20.9559  21.2849
    23.3373  23.6145

          k = 0.2222 0.2222 0.4444 (  3315 PWs)   bands (ev):

   -67.3457 -67.3318 -67.3210 -66.5405 -34.1174 -33.9269 -33.8894 -33.2930
   -33.2901 -33.2678 -33.1737 -33.1651 -33.1501 -32.6590 -32.6514 -32.6459
     1.5939  10.3370  11.4085  11.5214  14.4652  15.5479  16.4102  16.6974
    16.7867  17.0774  17.2515  17.4545  17.9240  18.6149  18.7202  18.7977
    19.2524  19.7836  19.8998  20.1208  20.3446  20.3570  20.5394  21.3908
    23.3744  23.4648

          k = 0.2222 0.3333 0.3333 (  3302 PWs)   bands (ev):

   -67.3464 -67.3276 -67.3242 -66.5404 -34.1323 -33.9160 -33.8848 -33.3033
   -33.2875 -33.2840 -33.1645 -33.1625 -33.1428 -32.6609 -32.6455 -32.6445
     1.6638  10.7513  10.7594  11.4191  14.3587  16.1258  16.1735  16.5867
    16.7958  16.9210  17.4230  17.6826  17.8426  18.5146  18.6469  18.7604
    19.3530  19.6426  19.8909  20.1759  20.3808  20.3978  21.0669  21.4857
    22.7515  23.7080

          k = 0.2222 0.3333 0.4444 (  3307 PWs)   bands (ev):

   -67.3415 -67.3316 -67.3250 -66.5405 -34.1468 -33.9131 -33.8704 -33.3144
   -33.2965 -33.2882 -33.1621 -33.1578 -33.1339 -32.6564 -32.6474 -32.6443
     1.8281  10.2850  10.7133  11.3572  14.7246  15.8577  16.2693  16.8391
    17.0111  17.0617  17.3092  17.5568  17.8453  18.4188  18.5326  18.7260
    19.4684  19.7475  19.9626  20.0609  20.3216  20.4542  20.7320  21.6889
    22.3545  23.6881

          k = 0.2222 0.4444 0.4444 (  3304 PWs)   bands (ev):

   -67.3366 -67.3320 -67.3293 -66.5405 -34.1628 -33.9091 -33.8561 -33.3263
   -33.3002 -33.2996 -33.1566 -33.1563 -33.1228 -32.6535 -32.6449 -32.6445
     1.9946  10.2475  10.2516  11.2843  14.9459  16.0845  16.1709  16.6785
    17.2039  17.2407  17.3394  17.7447  17.8425  18.1950  18.3663  18.7277
    19.6944  19.7352  19.8886  19.9603  20.2305  20.6464  20.8145  21.6141
    21.8558  23.8902

          k = 0.3333 0.3333 0.3333 (  3296 PWs)   bands (ev):

   -67.3427 -67.3276 -67.3276 -66.5404 -34.1629 -33.8837 -33.8837 -33.3110
   -33.3110 -33.3051 -33.1462 -33.1462 -33.1391 -32.6565 -32.6425 -32.6425
     1.8998  10.6405  10.6405  10.7346  14.6305  16.0845  16.4473  16.4473
    17.0966  17.0966  17.5111  17.7466  17.7466  18.4495  18.5257  18.5257
    19.5068  19.8520  19.8520  20.2895  20.3766  20.3766  21.3677  21.3677
    22.9688  22.9688

          k = 0.3333 0.3333 0.4444 (  3311 PWs)   bands (ev):

   -67.3388 -67.3317 -67.3277 -66.5405 -34.1795 -33.8833 -33.8663 -33.3236
   -33.3196 -33.3127 -33.1438 -33.1373 -33.1317 -32.6511 -32.6433 -32.6414
     2.0680  10.2046  10.5713  10.6650  14.8556  16.0361  16.2883  16.6333
    17.3169  17.3335  17.5118  17.7308  17.8234  18.2887  18.4211  18.5174
    19.6671  19.9046  20.0207  20.2098  20.3909  20.4084  20.7764  21.7180
    22.3417  23.1526

          k = 0.3333 0.4444 0.4444 (  3300 PWs)   bands (ev):

   -67.3353 -67.3320 -67.3305 -66.5405 -34.1974 -33.8746 -33.8559 -33.3350
   -33.3265 -33.3256 -33.1344 -33.1340 -33.1226 -32.6459 -32.6408 -32.6406
     2.2395  10.1485  10.1581  10.5571  14.9344  16.1694  16.2829  16.4801
    17.5940  17.6010  17.6686  17.8593  17.8655  18.1324  18.3003  18.4927
    19.8643  19.9518  20.0425  20.1411  20.4204  20.4855  20.7230  21.2321
    22.3654  23.1192

          k = 0.4444 0.4444 0.4444 (  3310 PWs)   bands (ev):

   -67.3339 -67.3320 -67.3320 -66.5405 -34.2166 -33.8558 -33.8558 -33.3408
   -33.3408 -33.3397 -33.1231 -33.1231 -33.1221 -32.6405 -32.6385 -32.6385
     2.4152  10.0863  10.0863  10.1089  14.9161  16.2393  16.3306  16.3306
    17.8945  17.8945  17.9819  17.9819  17.9871  18.0013  18.3666  18.3666
    20.0136  20.0717  20.0717  20.2602  20.3446  20.3446  20.7359  20.7359
    22.6681  22.6681

     the Fermi energy is    18.7334 ev

!    total energy              =   -1345.13936874 Ry
     Harris-Foulkes estimate   =   -1345.13936874 Ry
     estimated scf accuracy    <          5.8E-09 Ry

     total all-electron energy =    -10291.741004 Ry

     The total energy is the sum of the following terms:

     one-electron contribution =    -446.69901496 Ry
     hartree contribution      =     269.16664011 Ry
     xc contribution           =    -117.06969570 Ry
     ewald contribution        =    -711.61403732 Ry
     one-center paw contrib.   =    -338.92334284 Ry
     smearing contrib. (-TS)   =       0.00008197 Ry

     total magnetization       =     7.67 Bohr mag/cell
     absolute magnetization    =     8.02 Bohr mag/cell

     convergence has been achieved in  25 iterations

     Forces acting on atoms (Ry/au):


     negative rho (up, down):  0.000E+00 4.415E-04
     atom    1 type  1   force =     0.00000000    0.00000000    0.00000000
     atom    2 type  1   force =     0.00000000    0.00000000    0.00000000
     atom    3 type  1   force =     0.00000000    0.00000000    0.00000000
     atom    4 type  1   force =     0.00000000    0.00000000    0.00000000
     atom    5 type  2   force =     0.00000000    0.00000000    0.00000000

     Total force =     0.000000     Total SCF correction =     0.000000


     entering subroutine stress ...


     negative rho (up, down):  0.000E+00 4.415E-04
          total   stress  (Ry/bohr**3)                   (kbar)     P=  105.11
   0.00071454   0.00000000   0.00000000        105.11      0.00      0.00
   0.00000000   0.00071454   0.00000000          0.00    105.11      0.00
   0.00000000   0.00000000   0.00071454          0.00      0.00    105.11


     Writing output data file config.save
 
     init_run     :      2.10s CPU      2.21s WALL (       1 calls)
     electrons    :    132.48s CPU    136.41s WALL (       1 calls)
     forces       :      0.45s CPU      0.46s WALL (       1 calls)
     stress       :      1.44s CPU      1.45s WALL (       1 calls)

     Called by init_run:
     wfcinit      :      1.35s CPU      1.41s WALL (       1 calls)
     potinit      :      0.40s CPU      0.42s WALL (       1 calls)

     Called by electrons:
     c_bands      :    103.59s CPU    106.57s WALL (      25 calls)
     sum_band     :     17.14s CPU     17.65s WALL (      25 calls)
     v_of_rho     :      0.58s CPU      0.60s WALL (      26 calls)
     newd         :      0.95s CPU      0.95s WALL (      26 calls)
     mix_rho      :      0.18s CPU      0.18s WALL (      25 calls)

     Called by c_bands:
     init_us_2    :      1.40s CPU      1.44s WALL (    3710 calls)
     cegterg      :     97.58s CPU    100.39s WALL (    1750 calls)

     Called by sum_band:
     sum_band:bec :      0.05s CPU      0.05s WALL (    1750 calls)
     addusdens    :      2.41s CPU      2.42s WALL (      25 calls)

     Called by *egterg:
     h_psi        :     59.55s CPU     61.39s WALL (    6289 calls)
     s_psi        :      2.20s CPU      2.29s WALL (    6289 calls)
     g_psi        :      0.51s CPU      0.52s WALL (    4469 calls)
     cdiaghg      :     18.55s CPU     18.98s WALL (    6219 calls)

     Called by h_psi:
     add_vuspsi   :      2.27s CPU      2.36s WALL (    6289 calls)

     General routines
     calbec       :      4.71s CPU      4.87s WALL (    8389 calls)
     fft          :      0.36s CPU      0.36s WALL (     840 calls)
     ffts         :      0.02s CPU      0.02s WALL (     102 calls)
     fftw         :     54.50s CPU     56.09s WALL (  428116 calls)
     interpolate  :      0.07s CPU      0.08s WALL (     102 calls)
     davcio       :      0.02s CPU      0.26s WALL (      70 calls)
 
     Parallel routines
     fft_scatter  :     20.70s CPU     21.58s WALL (  429058 calls)

     PAW routines
     PAW_pot      :     10.38s CPU     10.72s WALL (      26 calls)
     PAW_symme    :      0.04s CPU      0.04s WALL (      51 calls)
 
     PWSCF        :  2m17.15s CPU     2m21.55s WALL

 
   This run was terminated on:  22:27:32  26Oct2020            

=------------------------------------------------------------------------------=
   JOB DONE.
=------------------------------------------------------------------------------=
