
     Program PWSCF v.5.2.0 starts on 27Oct2020 at  2:16:47 

     This program is part of the open-source Quantum ESPRESSO suite
     for quantum simulation of materials; please cite
         "P. Giannozzi et al., J. Phys.:Condens. Matter 21 395502 (2009);
          URL http://www.quantum-espresso.org", 
     in publications or presentations arising from this work. More details at
     http://www.quantum-espresso.org/quote

     Parallel version (MPI), running on     6 processors
     R & G space division:  proc/nbgrp/npool/nimage =       6
     Reading input from 20.in

     Current dimensions of program PWSCF are:
     Max number of different atomic species (ntypx) = 10
     Max number of k-points (npk) =  40000
     Max angular momentum in pseudopotentials (lmaxx) =  3

     IMPORTANT: XC functional enforced from input :
     Exchange-correlation      = PBE ( 1  4  3  4 0 0)
     Any further DFT definition will be discarded
     Please, verify this is what you really want

               file Fe_PSEUDO: wavefunction(s)  3P 3D renormalized
               file N_PSEUDO: wavefunction(s)  2S renormalized

     Subspace diagonalization in iterative solution of the eigenvalue problem:
     a serial algorithm will be used

 
     Parallelization info
     --------------------
     sticks:   dense  smooth     PW     G-vecs:    dense   smooth      PW
     Min         958     638    173                54712    29751    4233
     Max         959     639    174                54715    29763    4238
     Sum        5753    3833   1041               328285   178541   25413
 
     Generating pointlists ...
     new r_m :   0.2063 (alat units)  1.4318 (a.u.) for type    1
     new r_m :   0.2063 (alat units)  1.4318 (a.u.) for type    2


     bravais-lattice index     =            0
     lattice parameter (alat)  =       6.9422  a.u.
     unit-cell volume          =     334.5777 (a.u.)^3
     number of atoms/cell      =            5
     number of atomic types    =            2
     number of electrons       =        69.00
     number of Kohn-Sham states=           42
     kinetic-energy cutoff     =     250.0000  Ry
     charge density cutoff     =    1500.0000  Ry
     convergence threshold     =      1.0E-08
     mixing beta               =       0.7000
     number of iterations used =            8  plain     mixing
     Exchange-correlation      = PBE ( 1  4  3  4 0 0)

     celldm(1)=   6.942230  celldm(2)=   0.000000  celldm(3)=   0.000000
     celldm(4)=   0.000000  celldm(5)=   0.000000  celldm(6)=   0.000000

     crystal axes: (cart. coord. in units of alat)
               a(1) = (   1.000000   0.000000   0.000000 )  
               a(2) = (   0.000000   1.000000   0.000000 )  
               a(3) = (   0.000000   0.000000   1.000000 )  

     reciprocal axes: (cart. coord. in units 2 pi/alat)
               b(1) = (  1.000000  0.000000  0.000000 )  
               b(2) = (  0.000000  1.000000  0.000000 )  
               b(3) = (  0.000000  0.000000  1.000000 )  


     PseudoPot. # 1 for Fe read from file:
     pseudo/Fe_PSEUDO
     MD5 check sum: e30d5f36a6f0cb983ee41abee56170da
     Pseudo is Projector augmented-wave + core cor, Zval = 16.0
     Generated using "atomic" code by A. Dal Corso  v.6.3
     Shape of augmentation charge: PSQ
     Using radial grid of 1191 points,  6 beta functions with: 
                l(1) =   0
                l(2) =   0
                l(3) =   1
                l(4) =   1
                l(5) =   2
                l(6) =   2
     Q(r) pseudized with 0 coefficients 


     PseudoPot. # 2 for  N read from file:
     pseudo/N_PSEUDO
     MD5 check sum: 14c48229446f9f2d411169a3abcbc3fa
     Pseudo is Projector augmented-wave + core cor, Zval =  5.0
     Generated using "atomic" code by A. Dal Corso  v.6.3
     Shape of augmentation charge: PSQ
     Using radial grid of 1085 points,  4 beta functions with: 
                l(1) =   0
                l(2) =   0
                l(3) =   1
                l(4) =   1
     Q(r) pseudized with 0 coefficients 


     atomic species   valence    mass     pseudopotential
        Fe            16.00    55.84500     Fe( 1.00)
        N              5.00    14.00650      N( 1.00)

     Starting magnetic structure 
     atomic species   magnetization
        Fe           0.500
        N           -0.010

     48 Sym. Ops., with inversion, found



   Cartesian axes

     site n.     atom                  positions (alat units)
         1           Fe  tau(   1) = (   0.0000000   0.5000000   0.5000000  )
         2           Fe  tau(   2) = (   0.5000000   0.5000000   0.0000000  )
         3           Fe  tau(   3) = (   0.5000000   0.0000000   0.5000000  )
         4           Fe  tau(   4) = (   0.0000000   0.0000000   0.0000000  )
         5           N   tau(   5) = (   0.5000000   0.5000000   0.5000000  )

     number of k points=    70  Marzari-Vanderbilt smearing, width (Ry)=  0.0050
                       cart. coord. in units 2pi/alat
        k(    1) = (   0.0000000   0.0000000   0.0000000), wk =   0.0013717
        k(    2) = (   0.0000000   0.0000000   0.1111111), wk =   0.0082305
        k(    3) = (   0.0000000   0.0000000   0.2222222), wk =   0.0082305
        k(    4) = (   0.0000000   0.0000000   0.3333333), wk =   0.0082305
        k(    5) = (   0.0000000   0.0000000   0.4444444), wk =   0.0082305
        k(    6) = (   0.0000000   0.1111111   0.1111111), wk =   0.0164609
        k(    7) = (   0.0000000   0.1111111   0.2222222), wk =   0.0329218
        k(    8) = (   0.0000000   0.1111111   0.3333333), wk =   0.0329218
        k(    9) = (   0.0000000   0.1111111   0.4444444), wk =   0.0329218
        k(   10) = (   0.0000000   0.2222222   0.2222222), wk =   0.0164609
        k(   11) = (   0.0000000   0.2222222   0.3333333), wk =   0.0329218
        k(   12) = (   0.0000000   0.2222222   0.4444444), wk =   0.0329218
        k(   13) = (   0.0000000   0.3333333   0.3333333), wk =   0.0164609
        k(   14) = (   0.0000000   0.3333333   0.4444444), wk =   0.0329218
        k(   15) = (   0.0000000   0.4444444   0.4444444), wk =   0.0164609
        k(   16) = (   0.1111111   0.1111111   0.1111111), wk =   0.0109739
        k(   17) = (   0.1111111   0.1111111   0.2222222), wk =   0.0329218
        k(   18) = (   0.1111111   0.1111111   0.3333333), wk =   0.0329218
        k(   19) = (   0.1111111   0.1111111   0.4444444), wk =   0.0329218
        k(   20) = (   0.1111111   0.2222222   0.2222222), wk =   0.0329218
        k(   21) = (   0.1111111   0.2222222   0.3333333), wk =   0.0658436
        k(   22) = (   0.1111111   0.2222222   0.4444444), wk =   0.0658436
        k(   23) = (   0.1111111   0.3333333   0.3333333), wk =   0.0329218
        k(   24) = (   0.1111111   0.3333333   0.4444444), wk =   0.0658436
        k(   25) = (   0.1111111   0.4444444   0.4444444), wk =   0.0329218
        k(   26) = (   0.2222222   0.2222222   0.2222222), wk =   0.0109739
        k(   27) = (   0.2222222   0.2222222   0.3333333), wk =   0.0329218
        k(   28) = (   0.2222222   0.2222222   0.4444444), wk =   0.0329218
        k(   29) = (   0.2222222   0.3333333   0.3333333), wk =   0.0329218
        k(   30) = (   0.2222222   0.3333333   0.4444444), wk =   0.0658436
        k(   31) = (   0.2222222   0.4444444   0.4444444), wk =   0.0329218
        k(   32) = (   0.3333333   0.3333333   0.3333333), wk =   0.0109739
        k(   33) = (   0.3333333   0.3333333   0.4444444), wk =   0.0329218
        k(   34) = (   0.3333333   0.4444444   0.4444444), wk =   0.0329218
        k(   35) = (   0.4444444   0.4444444   0.4444444), wk =   0.0109739
        k(   36) = (   0.0000000   0.0000000   0.0000000), wk =   0.0013717
        k(   37) = (   0.0000000   0.0000000   0.1111111), wk =   0.0082305
        k(   38) = (   0.0000000   0.0000000   0.2222222), wk =   0.0082305
        k(   39) = (   0.0000000   0.0000000   0.3333333), wk =   0.0082305
        k(   40) = (   0.0000000   0.0000000   0.4444444), wk =   0.0082305
        k(   41) = (   0.0000000   0.1111111   0.1111111), wk =   0.0164609
        k(   42) = (   0.0000000   0.1111111   0.2222222), wk =   0.0329218
        k(   43) = (   0.0000000   0.1111111   0.3333333), wk =   0.0329218
        k(   44) = (   0.0000000   0.1111111   0.4444444), wk =   0.0329218
        k(   45) = (   0.0000000   0.2222222   0.2222222), wk =   0.0164609
        k(   46) = (   0.0000000   0.2222222   0.3333333), wk =   0.0329218
        k(   47) = (   0.0000000   0.2222222   0.4444444), wk =   0.0329218
        k(   48) = (   0.0000000   0.3333333   0.3333333), wk =   0.0164609
        k(   49) = (   0.0000000   0.3333333   0.4444444), wk =   0.0329218
        k(   50) = (   0.0000000   0.4444444   0.4444444), wk =   0.0164609
        k(   51) = (   0.1111111   0.1111111   0.1111111), wk =   0.0109739
        k(   52) = (   0.1111111   0.1111111   0.2222222), wk =   0.0329218
        k(   53) = (   0.1111111   0.1111111   0.3333333), wk =   0.0329218
        k(   54) = (   0.1111111   0.1111111   0.4444444), wk =   0.0329218
        k(   55) = (   0.1111111   0.2222222   0.2222222), wk =   0.0329218
        k(   56) = (   0.1111111   0.2222222   0.3333333), wk =   0.0658436
        k(   57) = (   0.1111111   0.2222222   0.4444444), wk =   0.0658436
        k(   58) = (   0.1111111   0.3333333   0.3333333), wk =   0.0329218
        k(   59) = (   0.1111111   0.3333333   0.4444444), wk =   0.0658436
        k(   60) = (   0.1111111   0.4444444   0.4444444), wk =   0.0329218
        k(   61) = (   0.2222222   0.2222222   0.2222222), wk =   0.0109739
        k(   62) = (   0.2222222   0.2222222   0.3333333), wk =   0.0329218
        k(   63) = (   0.2222222   0.2222222   0.4444444), wk =   0.0329218
        k(   64) = (   0.2222222   0.3333333   0.3333333), wk =   0.0329218
        k(   65) = (   0.2222222   0.3333333   0.4444444), wk =   0.0658436
        k(   66) = (   0.2222222   0.4444444   0.4444444), wk =   0.0329218
        k(   67) = (   0.3333333   0.3333333   0.3333333), wk =   0.0109739
        k(   68) = (   0.3333333   0.3333333   0.4444444), wk =   0.0329218
        k(   69) = (   0.3333333   0.4444444   0.4444444), wk =   0.0329218
        k(   70) = (   0.4444444   0.4444444   0.4444444), wk =   0.0109739

     Dense  grid:   328285 G-vectors     FFT dimensions: (  90,  90,  90)

     Smooth grid:   178541 G-vectors     FFT dimensions: (  72,  72,  72)

     Largest allocated arrays     est. size (Mb)     dimensions
        Kohn-Sham Wavefunctions         2.39 Mb     (    3730,   42)
        NL pseudopotentials             4.55 Mb     (    3730,   80)
        Each V/rho on FFT grid          3.71 Mb     (  121500,   2)
        Each G-vector array             0.42 Mb     (   54715)
        G-vector shells                 0.01 Mb     (    1519)
     Largest temporary arrays     est. size (Mb)     dimensions
        Auxiliary wavefunctions         9.56 Mb     (    3730,  168)
        Each subspace H/S matrix        0.43 Mb     (     168,  168)
        Each <psi_i|beta_j> matrix      0.05 Mb     (      80,   42)
        Arrays for rho mixing          14.83 Mb     (  121500,    8)

     Initial potential from superposition of free atoms

     starting charge   68.99837, renormalised to   69.00000
     Starting wfc are   44 randomized atomic wfcs
     Checking if some PAW data can be deallocated... 

     total cpu time spent up to now is       13.8 secs

     per-process dynamical memory:   248.4 Mb

     Self-consistent Calculation

     iteration #  1     ecut=   250.00 Ry     beta=0.70
     Davidson diagonalization with overlap
     ethr =  1.00E-02,  avg # of iterations =  3.1

     negative rho (up, down):  0.000E+00 4.381E-04
 
     Magnetic moment per site:
     atom:    1    charge:   12.7333    magn:    4.0983    constr:    0.0000
     atom:    2    charge:   12.7333    magn:    4.0983    constr:    0.0000
     atom:    3    charge:   12.7333    magn:    4.0983    constr:    0.0000
     atom:    4    charge:   12.6140    magn:    4.1674    constr:    0.0000
     atom:    5    charge:    4.6364    magn:    0.1188    constr:    0.0000

     total cpu time spent up to now is       52.2 secs

     total energy              =   -1344.14366559 Ry
     Harris-Foulkes estimate   =   -1343.44697883 Ry
     estimated scf accuracy    <       2.86642600 Ry

     total magnetization       =    13.88 Bohr mag/cell
     absolute magnetization    =    14.06 Bohr mag/cell

     iteration #  2     ecut=   250.00 Ry     beta=0.70
     Davidson diagonalization with overlap
     ethr =  4.15E-03,  avg # of iterations =  3.3

     negative rho (up, down):  0.000E+00 3.986E-04
 
     Magnetic moment per site:
     atom:    1    charge:   12.7245    magn:    3.8172    constr:    0.0000
     atom:    2    charge:   12.7245    magn:    3.8172    constr:    0.0000
     atom:    3    charge:   12.7245    magn:    3.8172    constr:    0.0000
     atom:    4    charge:   13.0650    magn:    3.5709    constr:    0.0000
     atom:    5    charge:    4.2262    magn:    0.0574    constr:    0.0000

     total cpu time spent up to now is       90.2 secs

     total energy              =   -1343.30268681 Ry
     Harris-Foulkes estimate   =   -1345.75101544 Ry
     estimated scf accuracy    <       8.51346842 Ry

     total magnetization       =     9.38 Bohr mag/cell
     absolute magnetization    =    10.50 Bohr mag/cell

     iteration #  3     ecut=   250.00 Ry     beta=0.70
     Davidson diagonalization with overlap
     ethr =  4.15E-03,  avg # of iterations =  3.5

     negative rho (up, down):  0.000E+00 1.319E-04
 
     Magnetic moment per site:
     atom:    1    charge:   12.8850    magn:    3.4488    constr:    0.0000
     atom:    2    charge:   12.8850    magn:    3.4488    constr:    0.0000
     atom:    3    charge:   12.8850    magn:    3.4488    constr:    0.0000
     atom:    4    charge:   12.8121    magn:    3.0196    constr:    0.0000
     atom:    5    charge:    4.0303    magn:    0.0245    constr:    0.0000

     total cpu time spent up to now is      129.3 secs

     total energy              =   -1343.62376736 Ry
     Harris-Foulkes estimate   =   -1346.18904144 Ry
     estimated scf accuracy    <      25.50116737 Ry

     total magnetization       =     3.80 Bohr mag/cell
     absolute magnetization    =     4.51 Bohr mag/cell

     iteration #  4     ecut=   250.00 Ry     beta=0.70
     Davidson diagonalization with overlap
     ethr =  4.15E-03,  avg # of iterations =  3.2

     negative rho (up, down):  0.000E+00 6.245E-04
 
     Magnetic moment per site:
     atom:    1    charge:   12.7743    magn:    2.2625    constr:    0.0000
     atom:    2    charge:   12.7743    magn:    2.2625    constr:    0.0000
     atom:    3    charge:   12.7743    magn:    2.2625    constr:    0.0000
     atom:    4    charge:   12.7286    magn:    1.8803    constr:    0.0000
     atom:    5    charge:    4.0533    magn:   -0.0484    constr:    0.0000

     total cpu time spent up to now is      166.8 secs

     total energy              =   -1345.03047243 Ry
     Harris-Foulkes estimate   =   -1345.10768508 Ry
     estimated scf accuracy    <       0.54774801 Ry

     total magnetization       =    10.75 Bohr mag/cell
     absolute magnetization    =    11.16 Bohr mag/cell

     iteration #  5     ecut=   250.00 Ry     beta=0.70
     Davidson diagonalization with overlap
     ethr =  7.94E-04,  avg # of iterations =  3.3

     negative rho (up, down):  0.000E+00 4.041E-04
 
     Magnetic moment per site:
     atom:    1    charge:   12.8333    magn:    2.1626    constr:    0.0000
     atom:    2    charge:   12.8333    magn:    2.1626    constr:    0.0000
     atom:    3    charge:   12.8333    magn:    2.1626    constr:    0.0000
     atom:    4    charge:   12.8042    magn:    2.0434    constr:    0.0000
     atom:    5    charge:    4.1100    magn:   -0.0266    constr:    0.0000

     total cpu time spent up to now is      207.3 secs

     total energy              =   -1345.11566727 Ry
     Harris-Foulkes estimate   =   -1345.20324182 Ry
     estimated scf accuracy    <       0.24209421 Ry

     total magnetization       =     9.59 Bohr mag/cell
     absolute magnetization    =     9.95 Bohr mag/cell

     iteration #  6     ecut=   250.00 Ry     beta=0.70
     Davidson diagonalization with overlap
     ethr =  3.51E-04,  avg # of iterations =  3.0

     negative rho (up, down):  0.000E+00 2.558E-04
 
     Magnetic moment per site:
     atom:    1    charge:   12.8271    magn:    2.1147    constr:    0.0000
     atom:    2    charge:   12.8271    magn:    2.1147    constr:    0.0000
     atom:    3    charge:   12.8271    magn:    2.1147    constr:    0.0000
     atom:    4    charge:   12.7931    magn:    2.3717    constr:    0.0000
     atom:    5    charge:    4.1120    magn:    0.0066    constr:    0.0000

     total cpu time spent up to now is      245.1 secs

     total energy              =   -1345.16254471 Ry
     Harris-Foulkes estimate   =   -1345.15832777 Ry
     estimated scf accuracy    <       0.02603640 Ry

     total magnetization       =     9.38 Bohr mag/cell
     absolute magnetization    =     9.72 Bohr mag/cell

     iteration #  7     ecut=   250.00 Ry     beta=0.70
     Davidson diagonalization with overlap
     ethr =  3.77E-05,  avg # of iterations =  1.7

     negative rho (up, down):  0.000E+00 3.184E-04
 
     Magnetic moment per site:
     atom:    1    charge:   12.8278    magn:    1.9571    constr:    0.0000
     atom:    2    charge:   12.8278    magn:    1.9571    constr:    0.0000
     atom:    3    charge:   12.8278    magn:    1.9571    constr:    0.0000
     atom:    4    charge:   12.7728    magn:    2.8104    constr:    0.0000
     atom:    5    charge:    4.1112    magn:    0.0392    constr:    0.0000

     total cpu time spent up to now is      277.8 secs

     total energy              =   -1345.16243528 Ry
     Harris-Foulkes estimate   =   -1345.16431516 Ry
     estimated scf accuracy    <       0.01797249 Ry

     total magnetization       =     9.38 Bohr mag/cell
     absolute magnetization    =     9.71 Bohr mag/cell

     iteration #  8     ecut=   250.00 Ry     beta=0.70
     Davidson diagonalization with overlap
     ethr =  2.60E-05,  avg # of iterations =  2.2

     negative rho (up, down):  0.000E+00 3.095E-04
 
     Magnetic moment per site:
     atom:    1    charge:   12.8310    magn:    1.8625    constr:    0.0000
     atom:    2    charge:   12.8310    magn:    1.8625    constr:    0.0000
     atom:    3    charge:   12.8310    magn:    1.8625    constr:    0.0000
     atom:    4    charge:   12.7753    magn:    2.7249    constr:    0.0000
     atom:    5    charge:    4.1091    magn:    0.0310    constr:    0.0000

     total cpu time spent up to now is      312.9 secs

     total energy              =   -1345.16744005 Ry
     Harris-Foulkes estimate   =   -1345.16646564 Ry
     estimated scf accuracy    <       0.00208742 Ry

     total magnetization       =     9.00 Bohr mag/cell
     absolute magnetization    =     9.35 Bohr mag/cell

     iteration #  9     ecut=   250.00 Ry     beta=0.70
     Davidson diagonalization with overlap
     ethr =  3.03E-06,  avg # of iterations =  2.1

     negative rho (up, down):  0.000E+00 3.323E-04
 
     Magnetic moment per site:
     atom:    1    charge:   12.8288    magn:    1.9949    constr:    0.0000
     atom:    2    charge:   12.8288    magn:    1.9949    constr:    0.0000
     atom:    3    charge:   12.8288    magn:    1.9949    constr:    0.0000
     atom:    4    charge:   12.7743    magn:    2.7577    constr:    0.0000
     atom:    5    charge:    4.1139    magn:    0.0386    constr:    0.0000

     total cpu time spent up to now is      346.3 secs

     total energy              =   -1345.16489493 Ry
     Harris-Foulkes estimate   =   -1345.16826096 Ry
     estimated scf accuracy    <       0.00201928 Ry

     total magnetization       =     8.59 Bohr mag/cell
     absolute magnetization    =     8.97 Bohr mag/cell

     iteration # 10     ecut=   250.00 Ry     beta=0.70
     Davidson diagonalization with overlap
     ethr =  2.93E-06,  avg # of iterations =  1.9

     negative rho (up, down):  0.000E+00 3.460E-04
 
     Magnetic moment per site:
     atom:    1    charge:   12.8273    magn:    2.0801    constr:    0.0000
     atom:    2    charge:   12.8273    magn:    2.0801    constr:    0.0000
     atom:    3    charge:   12.8273    magn:    2.0801    constr:    0.0000
     atom:    4    charge:   12.7753    magn:    2.7410    constr:    0.0000
     atom:    5    charge:    4.1174    magn:    0.0452    constr:    0.0000

     total cpu time spent up to now is      379.2 secs

     total energy              =   -1345.16464971 Ry
     Harris-Foulkes estimate   =   -1345.16633248 Ry
     estimated scf accuracy    <       0.00219360 Ry

     total magnetization       =     9.10 Bohr mag/cell
     absolute magnetization    =     9.44 Bohr mag/cell

     iteration # 11     ecut=   250.00 Ry     beta=0.70
     Davidson diagonalization with overlap
     ethr =  2.93E-06,  avg # of iterations =  1.7

     negative rho (up, down):  0.000E+00 2.682E-04
 
     Magnetic moment per site:
     atom:    1    charge:   12.8341    magn:    1.7235    constr:    0.0000
     atom:    2    charge:   12.8341    magn:    1.7235    constr:    0.0000
     atom:    3    charge:   12.8341    magn:    1.7235    constr:    0.0000
     atom:    4    charge:   12.7752    magn:    2.6961    constr:    0.0000
     atom:    5    charge:    4.1043    magn:    0.0141    constr:    0.0000

     total cpu time spent up to now is      412.1 secs

     total energy              =   -1345.16117864 Ry
     Harris-Foulkes estimate   =   -1345.16515436 Ry
     estimated scf accuracy    <       0.00284396 Ry

     total magnetization       =     9.33 Bohr mag/cell
     absolute magnetization    =     9.67 Bohr mag/cell

     iteration # 12     ecut=   250.00 Ry     beta=0.70
     Davidson diagonalization with overlap
     ethr =  2.93E-06,  avg # of iterations =  3.1

     negative rho (up, down):  0.000E+00 1.909E-04
 
     Magnetic moment per site:
     atom:    1    charge:   12.8415    magn:    1.3126    constr:    0.0000
     atom:    2    charge:   12.8415    magn:    1.3126    constr:    0.0000
     atom:    3    charge:   12.8415    magn:    1.3126    constr:    0.0000
     atom:    4    charge:   12.7744    magn:    2.6498    constr:    0.0000
     atom:    5    charge:    4.0879    magn:   -0.0231    constr:    0.0000

     total cpu time spent up to now is      453.1 secs

     total energy              =   -1345.16156344 Ry
     Harris-Foulkes estimate   =   -1345.17041254 Ry
     estimated scf accuracy    <       0.00122023 Ry

     total magnetization       =     8.20 Bohr mag/cell
     absolute magnetization    =     8.58 Bohr mag/cell

     iteration # 13     ecut=   250.00 Ry     beta=0.70
     Davidson diagonalization with overlap
     ethr =  1.77E-06,  avg # of iterations =  3.4

     negative rho (up, down):  0.000E+00 1.876E-04
 
     Magnetic moment per site:
     atom:    1    charge:   12.8437    magn:    1.2097    constr:    0.0000
     atom:    2    charge:   12.8437    magn:    1.2097    constr:    0.0000
     atom:    3    charge:   12.8437    magn:    1.2097    constr:    0.0000
     atom:    4    charge:   12.7743    magn:    2.6456    constr:    0.0000
     atom:    5    charge:    4.0836    magn:   -0.0332    constr:    0.0000

     total cpu time spent up to now is      500.5 secs

     total energy              =   -1345.16961371 Ry
     Harris-Foulkes estimate   =   -1345.17104462 Ry
     estimated scf accuracy    <       0.00060033 Ry

     total magnetization       =     7.22 Bohr mag/cell
     absolute magnetization    =     7.59 Bohr mag/cell

     iteration # 14     ecut=   250.00 Ry     beta=0.70
     Davidson diagonalization with overlap
     ethr =  8.70E-07,  avg # of iterations =  2.6

     negative rho (up, down):  0.000E+00 1.914E-04
 
     Magnetic moment per site:
     atom:    1    charge:   12.8426    magn:    1.2835    constr:    0.0000
     atom:    2    charge:   12.8426    magn:    1.2835    constr:    0.0000
     atom:    3    charge:   12.8426    magn:    1.2835    constr:    0.0000
     atom:    4    charge:   12.7744    magn:    2.6535    constr:    0.0000
     atom:    5    charge:    4.0855    magn:   -0.0280    constr:    0.0000

     total cpu time spent up to now is      537.1 secs

     total energy              =   -1345.17056346 Ry
     Harris-Foulkes estimate   =   -1345.17026833 Ry
     estimated scf accuracy    <       0.00132038 Ry

     total magnetization       =     6.97 Bohr mag/cell
     absolute magnetization    =     7.34 Bohr mag/cell

     iteration # 15     ecut=   250.00 Ry     beta=0.70
     Davidson diagonalization with overlap
     ethr =  8.70E-07,  avg # of iterations =  2.0

     negative rho (up, down):  0.000E+00 1.925E-04
 
     Magnetic moment per site:
     atom:    1    charge:   12.8432    magn:    1.2723    constr:    0.0000
     atom:    2    charge:   12.8432    magn:    1.2723    constr:    0.0000
     atom:    3    charge:   12.8432    magn:    1.2723    constr:    0.0000
     atom:    4    charge:   12.7749    magn:    2.6619    constr:    0.0000
     atom:    5    charge:    4.0843    magn:   -0.0330    constr:    0.0000

     total cpu time spent up to now is      570.6 secs

     total energy              =   -1345.17091426 Ry
     Harris-Foulkes estimate   =   -1345.17090841 Ry
     estimated scf accuracy    <       0.00079442 Ry

     total magnetization       =     7.15 Bohr mag/cell
     absolute magnetization    =     7.52 Bohr mag/cell

     iteration # 16     ecut=   250.00 Ry     beta=0.70
     Davidson diagonalization with overlap
     ethr =  8.70E-07,  avg # of iterations =  1.0

     negative rho (up, down):  0.000E+00 2.236E-04
 
     Magnetic moment per site:
     atom:    1    charge:   12.8389    magn:    1.4960    constr:    0.0000
     atom:    2    charge:   12.8389    magn:    1.4960    constr:    0.0000
     atom:    3    charge:   12.8389    magn:    1.4960    constr:    0.0000
     atom:    4    charge:   12.7745    magn:    2.6915    constr:    0.0000
     atom:    5    charge:    4.0904    magn:   -0.0201    constr:    0.0000

     total cpu time spent up to now is      602.3 secs

     total energy              =   -1345.16823533 Ry
     Harris-Foulkes estimate   =   -1345.17093346 Ry
     estimated scf accuracy    <       0.00087803 Ry

     total magnetization       =     7.14 Bohr mag/cell
     absolute magnetization    =     7.50 Bohr mag/cell

     iteration # 17     ecut=   250.00 Ry     beta=0.70
     Davidson diagonalization with overlap
     ethr =  8.70E-07,  avg # of iterations =  3.1

     negative rho (up, down):  0.000E+00 2.245E-04
 
     Magnetic moment per site:
     atom:    1    charge:   12.8385    magn:    1.5088    constr:    0.0000
     atom:    2    charge:   12.8385    magn:    1.5088    constr:    0.0000
     atom:    3    charge:   12.8385    magn:    1.5088    constr:    0.0000
     atom:    4    charge:   12.7745    magn:    2.6871    constr:    0.0000
     atom:    5    charge:    4.0913    magn:   -0.0175    constr:    0.0000

     total cpu time spent up to now is      645.8 secs

     total energy              =   -1345.17146909 Ry
     Harris-Foulkes estimate   =   -1345.17149859 Ry
     estimated scf accuracy    <       0.00102786 Ry

     total magnetization       =     7.74 Bohr mag/cell
     absolute magnetization    =     8.08 Bohr mag/cell

     iteration # 18     ecut=   250.00 Ry     beta=0.70
     Davidson diagonalization with overlap
     ethr =  8.70E-07,  avg # of iterations =  1.0

     negative rho (up, down):  0.000E+00 2.237E-04
 
     Magnetic moment per site:
     atom:    1    charge:   12.8365    magn:    1.5456    constr:    0.0000
     atom:    2    charge:   12.8365    magn:    1.5456    constr:    0.0000
     atom:    3    charge:   12.8365    magn:    1.5456    constr:    0.0000
     atom:    4    charge:   12.7740    magn:    2.6677    constr:    0.0000
     atom:    5    charge:    4.0954    magn:   -0.0051    constr:    0.0000

     total cpu time spent up to now is      677.5 secs

     total energy              =   -1345.17133153 Ry
     Harris-Foulkes estimate   =   -1345.17148155 Ry
     estimated scf accuracy    <       0.00076058 Ry

     total magnetization       =     7.76 Bohr mag/cell
     absolute magnetization    =     8.11 Bohr mag/cell

     iteration # 19     ecut=   250.00 Ry     beta=0.70
     Davidson diagonalization with overlap
     ethr =  8.70E-07,  avg # of iterations =  2.0

     negative rho (up, down):  0.000E+00 2.213E-04
 
     Magnetic moment per site:
     atom:    1    charge:   12.8367    magn:    1.5372    constr:    0.0000
     atom:    2    charge:   12.8367    magn:    1.5372    constr:    0.0000
     atom:    3    charge:   12.8367    magn:    1.5372    constr:    0.0000
     atom:    4    charge:   12.7740    magn:    2.6673    constr:    0.0000
     atom:    5    charge:    4.0952    magn:   -0.0055    constr:    0.0000

     total cpu time spent up to now is      711.0 secs

     total energy              =   -1345.17149019 Ry
     Harris-Foulkes estimate   =   -1345.17146823 Ry
     estimated scf accuracy    <       0.00013322 Ry

     total magnetization       =     7.83 Bohr mag/cell
     absolute magnetization    =     8.18 Bohr mag/cell

     iteration # 20     ecut=   250.00 Ry     beta=0.70
     Davidson diagonalization with overlap
     ethr =  1.93E-07,  avg # of iterations =  1.0

     negative rho (up, down):  0.000E+00 2.060E-04
 
     Magnetic moment per site:
     atom:    1    charge:   12.8371    magn:    1.4842    constr:    0.0000
     atom:    2    charge:   12.8371    magn:    1.4842    constr:    0.0000
     atom:    3    charge:   12.8371    magn:    1.4842    constr:    0.0000
     atom:    4    charge:   12.7736    magn:    2.6519    constr:    0.0000
     atom:    5    charge:    4.0948    magn:   -0.0033    constr:    0.0000

     total cpu time spent up to now is      742.7 secs

     total energy              =   -1345.17136838 Ry
     Harris-Foulkes estimate   =   -1345.17149606 Ry
     estimated scf accuracy    <       0.00011914 Ry

     total magnetization       =     7.81 Bohr mag/cell
     absolute magnetization    =     8.16 Bohr mag/cell

     iteration # 21     ecut=   250.00 Ry     beta=0.70
     Davidson diagonalization with overlap
     ethr =  1.73E-07,  avg # of iterations =  2.9

     negative rho (up, down):  0.000E+00 2.064E-04
 
     Magnetic moment per site:
     atom:    1    charge:   12.8372    magn:    1.4846    constr:    0.0000
     atom:    2    charge:   12.8372    magn:    1.4846    constr:    0.0000
     atom:    3    charge:   12.8372    magn:    1.4846    constr:    0.0000
     atom:    4    charge:   12.7737    magn:    2.6528    constr:    0.0000
     atom:    5    charge:    4.0947    magn:   -0.0039    constr:    0.0000

     total cpu time spent up to now is      781.4 secs

     total energy              =   -1345.17157244 Ry
     Harris-Foulkes estimate   =   -1345.17157169 Ry
     estimated scf accuracy    <       0.00000619 Ry

     total magnetization       =     7.67 Bohr mag/cell
     absolute magnetization    =     8.02 Bohr mag/cell

     iteration # 22     ecut=   250.00 Ry     beta=0.70
     Davidson diagonalization with overlap
     ethr =  8.98E-09,  avg # of iterations =  2.0

     negative rho (up, down):  0.000E+00 2.076E-04
 
     Magnetic moment per site:
     atom:    1    charge:   12.8375    magn:    1.4858    constr:    0.0000
     atom:    2    charge:   12.8375    magn:    1.4858    constr:    0.0000
     atom:    3    charge:   12.8375    magn:    1.4858    constr:    0.0000
     atom:    4    charge:   12.7740    magn:    2.6544    constr:    0.0000
     atom:    5    charge:    4.0945    magn:   -0.0045    constr:    0.0000

     total cpu time spent up to now is      814.5 secs

     total energy              =   -1345.17157226 Ry
     Harris-Foulkes estimate   =   -1345.17157285 Ry
     estimated scf accuracy    <       0.00000402 Ry

     total magnetization       =     7.68 Bohr mag/cell
     absolute magnetization    =     8.03 Bohr mag/cell

     iteration # 23     ecut=   250.00 Ry     beta=0.70
     Davidson diagonalization with overlap
     ethr =  5.82E-09,  avg # of iterations =  2.3

     negative rho (up, down):  0.000E+00 2.077E-04
 
     Magnetic moment per site:
     atom:    1    charge:   12.8374    magn:    1.4876    constr:    0.0000
     atom:    2    charge:   12.8374    magn:    1.4876    constr:    0.0000
     atom:    3    charge:   12.8374    magn:    1.4876    constr:    0.0000
     atom:    4    charge:   12.7740    magn:    2.6537    constr:    0.0000
     atom:    5    charge:    4.0947    magn:   -0.0038    constr:    0.0000

     total cpu time spent up to now is      849.7 secs

     total energy              =   -1345.17157341 Ry
     Harris-Foulkes estimate   =   -1345.17157364 Ry
     estimated scf accuracy    <       0.00000109 Ry

     total magnetization       =     7.68 Bohr mag/cell
     absolute magnetization    =     8.03 Bohr mag/cell

     iteration # 24     ecut=   250.00 Ry     beta=0.70
     Davidson diagonalization with overlap
     ethr =  1.58E-09,  avg # of iterations =  1.9

     negative rho (up, down):  0.000E+00 2.075E-04
 
     Magnetic moment per site:
     atom:    1    charge:   12.8374    magn:    1.4875    constr:    0.0000
     atom:    2    charge:   12.8374    magn:    1.4875    constr:    0.0000
     atom:    3    charge:   12.8374    magn:    1.4875    constr:    0.0000
     atom:    4    charge:   12.7739    magn:    2.6540    constr:    0.0000
     atom:    5    charge:    4.0947    magn:   -0.0038    constr:    0.0000

     total cpu time spent up to now is      882.9 secs

     total energy              =   -1345.17157373 Ry
     Harris-Foulkes estimate   =   -1345.17157375 Ry
     estimated scf accuracy    <       0.00000006 Ry

     total magnetization       =     7.68 Bohr mag/cell
     absolute magnetization    =     8.03 Bohr mag/cell

     iteration # 25     ecut=   250.00 Ry     beta=0.70
     Davidson diagonalization with overlap
     ethr =  8.53E-11,  avg # of iterations =  2.6

     negative rho (up, down):  0.000E+00 2.076E-04
 
     Magnetic moment per site:
     atom:    1    charge:   12.8374    magn:    1.4881    constr:    0.0000
     atom:    2    charge:   12.8374    magn:    1.4881    constr:    0.0000
     atom:    3    charge:   12.8374    magn:    1.4881    constr:    0.0000
     atom:    4    charge:   12.7739    magn:    2.6538    constr:    0.0000
     atom:    5    charge:    4.0947    magn:   -0.0036    constr:    0.0000

     total cpu time spent up to now is      920.4 secs

     total energy              =   -1345.17157372 Ry
     Harris-Foulkes estimate   =   -1345.17157376 Ry
     estimated scf accuracy    <       0.00000018 Ry

     total magnetization       =     7.68 Bohr mag/cell
     absolute magnetization    =     8.03 Bohr mag/cell

     iteration # 26     ecut=   250.00 Ry     beta=0.70
     Davidson diagonalization with overlap
     ethr =  8.53E-11,  avg # of iterations =  2.4

     negative rho (up, down):  0.000E+00 2.076E-04
 
     Magnetic moment per site:
     atom:    1    charge:   12.8374    magn:    1.4881    constr:    0.0000
     atom:    2    charge:   12.8374    magn:    1.4881    constr:    0.0000
     atom:    3    charge:   12.8374    magn:    1.4881    constr:    0.0000
     atom:    4    charge:   12.7739    magn:    2.6537    constr:    0.0000
     atom:    5    charge:    4.0947    magn:   -0.0036    constr:    0.0000

     total cpu time spent up to now is      956.3 secs

     End of self-consistent calculation

 ------ SPIN UP ------------


          k = 0.0000 0.0000 0.0000 ( 22335 PWs)   bands (ev):

   -69.9377 -69.2607 -69.2064 -69.2064 -35.9987 -35.9987 -35.9987 -35.6169
   -35.6169 -35.6169 -35.1597 -35.1597 -35.1597 -35.1531 -35.1531 -35.1531
     0.3456  11.4280  13.3304  13.3304  13.3304  13.8393  13.8393  14.1046
    14.1046  14.1046  16.0918  16.0918  16.0918  17.1978  17.1978  17.8457
    17.8457  18.3976  18.3976  18.3976  18.4655  18.4655  18.4655  18.4668
    21.8870  23.7553

          k = 0.0000 0.0000 0.1111 ( 22359 PWs)   bands (ev):

   -69.9376 -69.2593 -69.2078 -69.2063 -35.9977 -35.9977 -35.9973 -35.6157
   -35.6157 -35.6147 -35.1607 -35.1607 -35.1600 -35.1579 -35.1543 -35.1543
     0.4153  11.4853  12.9272  13.1104  13.1104  13.9186  13.9303  14.1569
    14.3437  14.3437  16.0272  16.1458  16.1458  17.2209  17.2568  17.8142
    17.8697  18.3135  18.3135  18.3975  18.3975  18.3977  18.4057  18.4643
    21.9630  23.2362

          k = 0.0000 0.0000 0.2222 ( 22327 PWs)   bands (ev):

   -69.9374 -69.2554 -69.2120 -69.2063 -35.9952 -35.9952 -35.9939 -35.6127
   -35.6127 -35.6087 -35.1705 -35.1636 -35.1636 -35.1607 -35.1571 -35.1571
     0.6003  11.3377  12.5041  12.7672  12.7672  14.0808  14.1351  14.3085
    14.7506  14.7506  15.8445  16.2718  16.2718  17.1939  17.2852  17.7240
    17.7683  17.9538  17.9538  18.2387  18.3981  18.4009  18.4009  18.4616
    22.1770  22.5167

          k = 0.0000 0.0000 0.3333 ( 22343 PWs)   bands (ev):

   -69.9371 -69.2497 -69.2180 -69.2063 -35.9923 -35.9923 -35.9900 -35.6092
   -35.6092 -35.6012 -35.1854 -35.1673 -35.1673 -35.1616 -35.1600 -35.1600
     0.8282  10.6696  12.4972  12.4972  12.8458  14.1973  14.4171  14.5418
    15.1423  15.1423  15.5757  16.3644  16.3644  16.9833  17.3209  17.3610
    17.5811  17.5811  17.6121  18.0166  18.3985  18.4140  18.4140  18.4588
    22.0438  22.5712

          k = 0.0000 0.0000 0.4444 ( 22303 PWs)   bands (ev):

   -69.9369 -69.2444 -69.2235 -69.2063 -35.9904 -35.9904 -35.9875 -35.6068
   -35.6068 -35.5959 -35.1956 -35.1699 -35.1699 -35.1621 -35.1617 -35.1617
     0.9890  10.1828  12.3530  12.3530  13.4004  14.1245  14.6314  14.8073
    15.2870  15.4344  15.4344  16.3333  16.3333  16.7318  16.9433  17.3456
    17.3738  17.3738  17.6395  17.8039  18.3988  18.4293  18.4293  18.4571
    21.9105  22.7890

          k = 0.0000 0.1111 0.1111 ( 22355 PWs)   bands (ev):

   -69.9375 -69.2580 -69.2085 -69.2071 -35.9980 -35.9967 -35.9951 -35.6268
   -35.6145 -35.6003 -35.1710 -35.1617 -35.1613 -35.1580 -35.1556 -35.1492
     0.4850  11.5392  12.6986  12.8567  12.9537  13.9958  14.0036  14.2120
    14.4867  14.5132  16.0036  16.1624  16.1923  17.2483  17.2723  17.7256
    17.7829  18.2257  18.2636  18.3174  18.3238  18.4097  18.4784  18.5419
    22.0237  23.4380

          k = 0.0000 0.1111 0.2222 ( 22367 PWs)   bands (ev):

   -69.9373 -69.2541 -69.2123 -69.2074 -35.9965 -35.9943 -35.9918 -35.6343
   -35.6113 -35.5844 -35.1864 -35.1662 -35.1644 -35.1591 -35.1586 -35.1449
     0.6703  11.3589  12.2604  12.6629  12.6763  14.1569  14.2064  14.3620
    14.8140  14.8586  15.8414  16.2810  16.2886  17.1593  17.3230  17.4377
    17.5839  17.9111  18.1394  18.1978  18.2413  18.3834  18.5577  18.6818
    22.2023  22.6700

          k = 0.0000 0.1111 0.3333 ( 22345 PWs)   bands (ev):

   -69.9370 -69.2485 -69.2181 -69.2074 -35.9937 -35.9915 -35.9891 -35.6381
   -35.6076 -35.5704 -35.2016 -35.1712 -35.1680 -35.1616 -35.1611 -35.1426
     0.8987  10.6614  12.1383  12.4160  12.9457  14.2824  14.4857  14.5909
    15.1747  15.2142  15.5800  16.2915  16.3932  16.9291  17.0972  17.2653
    17.4900  17.5572  17.8560  18.0730  18.1790  18.3771  18.6294  18.6754
    22.2614  22.4501

          k = 0.0000 0.1111 0.4444 ( 22328 PWs)   bands (ev):

   -69.9368 -69.2433 -69.2235 -69.2074 -35.9912 -35.9897 -35.9881 -35.6394
   -35.6052 -35.5620 -35.2113 -35.1744 -35.1706 -35.1633 -35.1625 -35.1418
     1.0600  10.1713  12.0376  12.2805  13.4691  14.2190  14.7008  14.8572
    15.2904  15.4584  15.4810  16.1375  16.3911  16.6628  16.8635  17.2551
    17.3550  17.4652  17.7075  17.8990  18.1428  18.3750  18.6535  18.6754
    22.1427  22.6120

          k = 0.0000 0.2222 0.2222 ( 22347 PWs)   bands (ev):

   -69.9371 -69.2505 -69.2140 -69.2095 -35.9968 -35.9921 -35.9896 -35.6529
   -35.6078 -35.5589 -35.2077 -35.1688 -35.1667 -35.1622 -35.1609 -35.1313
     0.8566  11.2947  11.5675  12.4407  12.7894  14.3574  14.3834  14.5047
    15.0139  15.1099  15.7595  16.2747  16.3625  17.0221  17.0274  17.3101
    17.4582  17.7422  18.0339  18.0879  18.2575  18.3346  18.7080  18.9938
    22.1157  22.9983

          k = 0.0000 0.2222 0.3333 ( 22378 PWs)   bands (ev):

   -69.9368 -69.2452 -69.2185 -69.2104 -35.9954 -35.9895 -35.9890 -35.6653
   -35.6037 -35.5382 -35.2257 -35.1716 -35.1700 -35.1657 -35.1632 -35.1222
     1.0865  10.6284  11.3677  12.2331  13.1801  14.5161  14.6610  14.7160
    15.2784  15.3902  15.5578  16.0661  16.4957  16.7574  16.8081  17.1018
    17.4752  17.6354  17.8024  17.9573  18.1965  18.3517  18.8354  19.0288
    21.9454  22.8232

          k = 0.0000 0.2222 0.4444 ( 22313 PWs)   bands (ev):

   -69.9367 -69.2400 -69.2236 -69.2106 -35.9930 -35.9900 -35.9879 -35.6714
   -35.6010 -35.5265 -35.2362 -35.1735 -35.1725 -35.1676 -35.1647 -35.1178
     1.2492  10.1368  11.3031  12.1145  13.6797  14.4690  14.8907  14.9676
    15.2992  15.4954  15.5992  15.8225  16.5515  16.5534  16.6108  17.0964
    17.2975  17.5283  17.8744  17.8794  18.1773  18.2111  18.9121  18.9626
    21.9124  22.7454

          k = 0.0000 0.3333 0.3333 ( 22321 PWs)   bands (ev):

   -69.9367 -69.2403 -69.2202 -69.2138 -35.9958 -35.9903 -35.9873 -35.6848
   -35.5991 -35.5129 -35.2453 -35.1725 -35.1716 -35.1702 -35.1657 -35.1074
     1.3190  10.5582  10.5958  12.0537  13.5740  14.8382  14.8433  14.8880
    15.4136  15.4600  15.5947  15.7405  16.5547  16.6477  16.6576  16.8986
    17.3280  17.6087  17.7577  17.9050  18.0433  18.5476  19.0040  19.1741
    21.2658  23.3553

          k = 0.0000 0.3333 0.4444 ( 22307 PWs)   bands (ev):

   -69.9365 -69.2352 -69.2238 -69.2154 -35.9947 -35.9924 -35.9858 -35.6948
   -35.5960 -35.4989 -35.2562 -35.1747 -35.1726 -35.1716 -35.1674 -35.0998
     1.4839  10.0899  10.5350  11.9483  14.0222  14.7990  15.0848  15.1282
    15.2952  15.5096  15.5582  15.7461  16.4013  16.4737  16.7776  16.8315
    17.2030  17.3994  17.6204  17.9737  18.1736  18.5806  19.1026  19.1294
    20.9076  23.4486

          k = 0.0000 0.4444 0.4444 ( 22336 PWs)   bands (ev):

   -69.9364 -69.2296 -69.2242 -69.2205 -35.9954 -35.9945 -35.9844 -35.7071
   -35.5928 -35.4837 -35.2671 -35.1762 -35.1759 -35.1702 -35.1693 -35.0902
     1.6509  10.0557  10.0562  11.8496  14.3680  15.0247  15.1858  15.2537
    15.2589  15.4089  15.5744  15.8588  16.3135  16.3952  16.5769  16.9867
    17.1136  17.2343  17.4091  17.8573  18.3837  18.9439  19.1746  19.2127
    20.1302  23.9980

          k = 0.1111 0.1111 0.1111 ( 22382 PWs)   bands (ev):

   -69.9374 -69.2567 -69.2085 -69.2085 -35.9973 -35.9973 -35.9928 -35.6390
   -35.5992 -35.5992 -35.1741 -35.1703 -35.1703 -35.1513 -35.1495 -35.1495
     0.5549  11.5893  12.5637  12.5637  12.8354  14.0716  14.0716  14.3893
    14.3893  14.7339  15.9883  16.2020  16.2020  17.2664  17.2664  17.6640
    17.6640  17.9909  18.1227  18.3438  18.3438  18.4192  18.6405  18.6405
    22.0739  23.5625

          k = 0.1111 0.1111 0.2222 ( 22349 PWs)   bands (ev):

   -69.9372 -69.2529 -69.2125 -69.2085 -35.9963 -35.9955 -35.9896 -35.6511
   -35.5963 -35.5788 -35.1907 -35.1807 -35.1720 -35.1516 -35.1466 -35.1443
     0.7406  11.3710  12.1431  12.2978  12.7586  14.2323  14.2774  14.4622
    14.7618  15.0130  15.8439  16.2845  16.2950  17.1759  17.2936  17.3837
    17.4076  17.7632  17.9264  18.2172  18.3449  18.3557  18.8015  18.8323
    22.2205  22.8347

          k = 0.1111 0.1111 0.3333 ( 22345 PWs)   bands (ev):

   -69.9370 -69.2474 -69.2182 -69.2084 -35.9936 -35.9935 -35.9876 -35.6586
   -35.5929 -35.5614 -35.2069 -35.1894 -35.1731 -35.1533 -35.1473 -35.1402
     0.9695  10.6461  12.0639  12.0767  13.0381  14.3636  14.5546  14.6646
    15.1708  15.2801  15.5906  16.2779  16.3442  16.9167  17.0704  17.1112
    17.4306  17.6060  17.7037  18.0893  18.2496  18.3337  18.6806  18.9920
    22.4186  22.4431

          k = 0.1111 0.1111 0.4444 ( 22326 PWs)   bands (ev):

   -69.9368 -69.2422 -69.2235 -69.2084 -35.9921 -35.9903 -35.9879 -35.6620
   -35.5907 -35.5512 -35.2169 -35.1943 -35.1737 -35.1545 -35.1488 -35.1382
     1.1313  10.1542  11.9340  12.0076  13.5363  14.3071  14.7708  14.9227
    15.3007  15.4546  15.5301  16.0756  16.2780  16.6258  16.9671  17.0966
    17.3336  17.4987  17.7087  17.9298  18.1838  18.3235  18.5234  19.0835
    22.3366  22.5620

          k = 0.1111 0.2222 0.2222 ( 22359 PWs)   bands (ev):

   -69.9370 -69.2494 -69.2140 -69.2106 -35.9967 -35.9946 -35.9872 -35.6713
   -35.5871 -35.5580 -35.2088 -35.1857 -35.1823 -35.1471 -35.1462 -35.1315
     0.9273  11.2970  11.4890  12.0698  12.8954  14.4279  14.4563  14.6309
    14.9387  15.2085  15.7700  16.2695  16.3399  17.0314  17.0913  17.2140
    17.3954  17.5439  17.7216  18.2476  18.2494  18.3212  19.0773  19.1101
    22.1893  23.1062

          k = 0.1111 0.2222 0.3333 ( 22349 PWs)   bands (ev):

   -69.9368 -69.2442 -69.2186 -69.2113 -35.9957 -35.9932 -35.9865 -35.6856
   -35.5827 -35.5367 -35.2261 -35.1944 -35.1844 -35.1481 -35.1449 -35.1223
     1.1581  10.5980  11.3112  11.9146  13.2655  14.5773  14.7279  14.8333
    15.2635  15.3761  15.5835  16.1021  16.3718  16.7649  16.9121  17.0311
    17.4416  17.4777  17.6141  18.1515  18.1971  18.2541  18.9962  19.3334
    22.0567  22.8859

          k = 0.1111 0.2222 0.4444 ( 22327 PWs)   bands (ev):

   -69.9366 -69.2392 -69.2236 -69.2114 -35.9941 -35.9919 -35.9874 -35.6927
   -35.5801 -35.5242 -35.2361 -35.2000 -35.1848 -35.1489 -35.1449 -35.1177
     1.3216  10.1072  11.2411  11.8216  13.7356  14.5290  14.9594  15.0707
    15.3031  15.4782  15.6035  15.8646  16.2986  16.5432  16.8766  16.9671
    17.3020  17.4477  17.7959  18.0497  18.1005  18.2329  18.7424  19.4749
    22.0149  22.8354

          k = 0.1111 0.3333 0.3333 ( 22337 PWs)   bands (ev):

   -69.9366 -69.2395 -69.2202 -69.2145 -35.9965 -35.9932 -35.9866 -35.7057
   -35.5772 -35.5125 -35.2443 -35.1959 -35.1931 -35.1462 -35.1448 -35.1075
     1.3918  10.5241  10.5391  11.7567  13.6359  14.8222  14.9037  15.0684
    15.3294  15.4718  15.5693  15.9046  16.3662  16.6357  16.7524  16.9581
    17.3275  17.3348  17.7950  18.0108  18.1083  18.3391  19.2230  19.4676
    21.3615  23.2561

          k = 0.1111 0.3333 0.4444 ( 22312 PWs)   bands (ev):

   -69.9365 -69.2346 -69.2238 -69.2159 -35.9958 -35.9941 -35.9870 -35.7163
   -35.5742 -35.4984 -35.2545 -35.2002 -35.1943 -35.1460 -35.1448 -35.0998
     1.5578  10.0487  10.4832  11.6622  14.0408  14.7947  15.0908  15.2861
    15.2941  15.5092  15.5620  15.9170  16.2892  16.4458  16.7279  16.9205
    17.2024  17.3104  17.8561  17.9761  18.0299  18.4885  19.0165  19.6590
    20.9536  23.3823

          k = 0.1111 0.4444 0.4444 ( 22321 PWs)   bands (ev):

   -69.9364 -69.2293 -69.2242 -69.2207 -35.9966 -35.9959 -35.9867 -35.7289
   -35.5710 -35.4836 -35.2648 -35.2001 -35.1997 -35.1451 -35.1448 -35.0902
     1.7261  10.0073  10.0092  11.5674  14.3230  14.9815  15.0451  15.2044
    15.5458  15.5517  15.6297  16.0531  16.2554  16.3613  16.5044  16.9232
    17.1737  17.2213  17.6740  17.9339  18.0852  18.8774  19.1699  19.6998
    20.1193  23.7361

          k = 0.2222 0.2222 0.2222 ( 22364 PWs)   bands (ev):

   -69.9369 -69.2462 -69.2139 -69.2139 -35.9967 -35.9967 -35.9855 -35.6970
   -35.5557 -35.5557 -35.2163 -35.1989 -35.1989 -35.1341 -35.1341 -35.1300
     1.1157  11.2708  11.3111  11.3111  13.1131  14.6221  14.6221  14.9417
    14.9417  15.3037  15.7315  16.2791  16.2791  16.9688  16.9688  17.2820
    17.2820  17.2919  17.4266  18.2280  18.2280  18.3811  19.4142  19.4142
    22.2832  23.0620

          k = 0.2222 0.2222 0.3333 ( 22337 PWs)   bands (ev):

   -69.9367 -69.2414 -69.2188 -69.2139 -35.9966 -35.9966 -35.9861 -35.7161
   -35.5530 -35.5297 -35.2303 -35.2119 -35.2016 -35.1340 -35.1263 -35.1205
     1.3491  10.5167  11.1352  11.2354  13.4786  14.7335  14.8917  15.1004
    15.2915  15.2952  15.6687  16.1475  16.2337  16.7239  16.7857  17.1813
    17.1840  17.3770  17.5202  18.1611  18.2193  18.3157  19.2413  19.7637
    22.2484  22.6935

          k = 0.2222 0.2222 0.4444 ( 22307 PWs)   bands (ev):

   -69.9366 -69.2367 -69.2237 -69.2139 -35.9966 -35.9948 -35.9882 -35.7261
   -35.5512 -35.5150 -35.2393 -35.2190 -35.2019 -35.1346 -35.1229 -35.1150
     1.5149  10.0323  11.0316  11.1935  13.8845  14.6644  15.1471  15.1478
    15.4028  15.4924  15.6114  15.9862  16.1832  16.4972  16.7709  17.0058
    17.1464  17.5597  17.7228  18.0961  18.1960  18.2418  18.8103  20.0140
    22.2599  22.3754

          k = 0.2222 0.3333 0.3333 ( 22334 PWs)   bands (ev):

   -69.9365 -69.2373 -69.2201 -69.2168 -35.9983 -35.9975 -35.9880 -35.7400
   -35.5404 -35.5112 -35.2422 -35.2171 -35.2137 -35.1252 -35.1237 -35.1076
     1.5865  10.4046  10.4370  11.0620  13.7831  14.8925  14.9970  15.1533
    15.4036  15.4570  15.8013  16.1020  16.2127  16.6134  16.6339  16.9611
    17.3035  17.3486  17.6457  18.1524  18.2318  18.2815  19.4021  19.9180
    21.6310  22.6889

          k = 0.2222 0.3333 0.4444 ( 22311 PWs)   bands (ev):

   -69.9364 -69.2329 -69.2238 -69.2176 -35.9987 -35.9976 -35.9905 -35.7527
   -35.5371 -35.4970 -35.2506 -35.2230 -35.2151 -35.1247 -35.1198 -35.0998
     1.7558   9.9477  10.3577  10.9826  14.0721  14.8046  15.0270  15.2235
    15.4899  15.7145  15.8749  16.1613  16.1872  16.4230  16.6197  16.8031
    17.2856  17.5118  17.7751  18.1057  18.1690  18.3877  19.0261  20.2479
    21.0536  22.6437

          k = 0.2222 0.4444 0.4444 ( 22319 PWs)   bands (ev):

   -69.9364 -69.2285 -69.2242 -69.2215 -35.9996 -35.9993 -35.9926 -35.7671
   -35.5327 -35.4834 -35.2588 -35.2227 -35.2221 -35.1199 -35.1196 -35.0902
     1.9280   9.8897   9.8970  10.8923  14.2092  14.8977  14.9495  15.0889
    15.6721  16.0013  16.1134  16.2016  16.2629  16.3985  16.5117  16.6588
    17.4064  17.4413  17.8210  17.9823  18.1007  18.7640  19.1465  19.9404
    20.4393  22.9018

          k = 0.3333 0.3333 0.3333 ( 22340 PWs)   bands (ev):

   -69.9364 -69.2340 -69.2201 -69.2201 -36.0004 -36.0004 -35.9916 -35.7677
   -35.5098 -35.5098 -35.2433 -35.2289 -35.2289 -35.1101 -35.1101 -35.1056
     1.8296  10.2646  10.2646  10.4018  13.9567  14.9417  14.9943  14.9943
    15.6692  15.6692  16.1351  16.2173  16.2173  16.5748  16.5748  16.7360
    17.4731  17.5581  17.5581  18.2034  18.2034  18.3416  19.7533  19.7533
    21.9448  21.9448

          k = 0.3333 0.3333 0.4444 ( 22303 PWs)   bands (ev):

   -69.9364 -69.2303 -69.2238 -69.2201 -36.0017 -36.0010 -35.9953 -35.7827
   -35.5089 -35.4929 -35.2483 -35.2370 -35.2303 -35.1090 -35.1024 -35.0985
     2.0036   9.8386  10.1793  10.3013  14.0865  14.8128  14.9321  15.0657
    15.7096  15.9684  16.2178  16.2965  16.3758  16.5442  16.5844  16.7062
    17.4816  17.6851  17.7208  18.2218  18.2872  18.3190  19.0859  20.2689
    21.0589  21.9458

          k = 0.3333 0.4444 0.4444 ( 22324 PWs)   bands (ev):

   -69.9363 -69.2273 -69.2242 -69.2227 -36.0030 -36.0030 -35.9993 -35.7991
   -35.5007 -35.4831 -35.2522 -35.2388 -35.2381 -35.1008 -35.1005 -35.0901
     2.1819   9.7649   9.7772  10.1655  14.0867  14.8234  14.8777  14.9431
    15.8646  16.0629  16.2505  16.2623  16.4458  16.8096  16.8155  16.9887
    17.6307  17.6601  17.7491  18.2072  18.2597  18.5482  19.0736  19.6181
    20.9364  21.9304

          k = 0.4444 0.4444 0.4444 ( 22316 PWs)   bands (ev):

   -69.9363 -69.2258 -69.2241 -69.2241 -36.0052 -36.0052 -36.0038 -35.8167
   -35.4830 -35.4830 -35.2487 -35.2465 -35.2465 -35.0905 -35.0905 -35.0897
     2.3653   9.6880   9.6880   9.7163  14.0118  14.7926  14.8331  14.8331
    16.0114  16.0114  16.2623  16.2623  16.3287  17.4462  17.4462  17.4745
    17.7437  17.7437  17.9037  18.3140  18.3140  18.3167  18.9393  18.9393
    21.2437  21.2437

 ------ SPIN DOWN ----------


          k = 0.0000 0.0000 0.0000 ( 22335 PWs)   bands (ev):

   -67.3633 -67.3026 -67.3026 -66.5341 -33.9863 -33.9863 -33.9863 -33.2305
   -33.2305 -33.2305 -33.1918 -33.1918 -33.1918 -32.6396 -32.6396 -32.6396
     0.4465  11.7276  13.3949  13.3949  13.3949  15.2107  15.2107  15.5337
    15.5337  15.5337  18.0412  18.0412  18.0412  18.7049  18.7049  20.2821
    20.2821  20.2821  20.4083  20.4083  20.5095  20.8707  20.8707  20.8707
    23.0637  23.9612

          k = 0.0000 0.0000 0.1111 ( 22359 PWs)   bands (ev):

   -67.3616 -67.3041 -67.3025 -66.5342 -33.9851 -33.9851 -33.9846 -33.2309
   -33.2295 -33.2295 -33.1929 -33.1929 -33.1921 -32.6425 -32.6408 -32.6408
     0.5155  11.7585  13.0944  13.2814  13.2814  15.2705  15.3100  15.5909
    15.6869  15.6869  17.9635  18.1036  18.1036  18.7114  18.8016  20.2364
    20.2364  20.2823  20.3478  20.3646  20.4466  20.6202  20.6202  20.8707
    23.1050  23.6077

          k = 0.0000 0.0000 0.2222 ( 22327 PWs)   bands (ev):

   -67.3569 -67.3087 -67.3025 -66.5344 -33.9820 -33.9820 -33.9802 -33.2319
   -33.2269 -33.2269 -33.1957 -33.1957 -33.1930 -32.6498 -32.6438 -32.6438
     0.6982  11.5210  12.8548  13.0421  13.0421  15.3356  15.5856  15.7546
    16.0361  16.0361  17.7481  18.2773  18.2773  18.7208  18.8140  19.9889
    19.9889  20.1244  20.1430  20.2204  20.2204  20.2828  20.3767  20.8709
    23.0982  23.2968

          k = 0.0000 0.0000 0.3333 ( 22343 PWs)   bands (ev):

   -67.3500 -67.3153 -67.3025 -66.5347 -33.9784 -33.9784 -33.9751 -33.2330
   -33.2241 -33.2241 -33.1989 -33.1989 -33.1940 -32.6582 -32.6474 -32.6474
     0.9226  10.8627  12.8212  12.8212  13.2717  15.2192  15.9595  15.9957
    16.4089  16.4089  17.4487  18.5182  18.5182  18.5894  18.7029  19.4684
    19.4684  19.7688  19.8264  20.0530  20.0530  20.2833  20.3216  20.8711
    22.9357  23.5441

          k = 0.0000 0.0000 0.4444 ( 22303 PWs)   bands (ev):

   -67.3435 -67.3216 -67.3025 -66.5348 -33.9760 -33.9760 -33.9717 -33.2337
   -33.2222 -33.2222 -33.2009 -33.2009 -33.1947 -32.6638 -32.6497 -32.6497
     1.0805  10.3966  12.6957  12.6957  13.9346  14.7947  16.2273  16.2616
    16.6611  16.6611  17.1794  18.4157  18.6444  18.7636  18.7636  19.0532
    19.0532  19.4980  19.6039  19.9438  19.9438  20.2837  20.2855  20.8713
    22.9017  23.7480

          k = 0.0000 0.1111 0.1111 ( 22355 PWs)   bands (ev):

   -67.3600 -67.3049 -67.3034 -66.5343 -33.9979 -33.9839 -33.9692 -33.2349
   -33.2285 -33.2276 -33.1975 -33.1940 -33.1865 -32.6463 -32.6420 -32.6404
     0.5844  11.7908  12.8623  13.1408  13.1804  15.3466  15.3811  15.6569
    15.8148  15.8156  17.9272  18.1264  18.1580  18.7524  18.7970  20.1521
    20.1890  20.2136  20.2576  20.3573  20.4306  20.5234  20.5312  20.7749
    23.1399  23.8584

          k = 0.0000 0.1111 0.2222 ( 22367 PWs)   bands (ev):

   -67.3554 -67.3089 -67.3037 -66.5345 -34.0071 -33.9808 -33.9530 -33.2420
   -33.2258 -33.2254 -33.2009 -33.1968 -33.1814 -32.6526 -32.6451 -32.6426
     0.7673  11.5462  12.5128  12.9613  13.0785  15.4217  15.6385  15.8237
    16.1195  16.1288  17.7349  18.2829  18.2972  18.6949  18.7302  19.8200
    19.9571  19.9616  20.0880  20.2027  20.3615  20.3783  20.4821  20.7403
    23.2073  23.4014

          k = 0.0000 0.1111 0.3333 ( 22345 PWs)   bands (ev):

   -67.3487 -67.3153 -67.3037 -66.5347 -34.0128 -33.9773 -33.9394 -33.2491
   -33.2230 -33.2228 -33.2031 -33.2000 -33.1781 -32.6586 -32.6487 -32.6463
     0.9921  10.8684  12.4343  12.7538  13.4032  15.3132  16.0057  16.0656
    16.4580  16.4685  17.4443  18.3444  18.4940  18.5278  18.6586  19.4837
    19.5001  19.7221  19.8939  19.9378  20.2483  20.3633  20.3846  20.7410
    23.1204  23.4633

          k = 0.0000 0.1111 0.4444 ( 22328 PWs)   bands (ev):

   -67.3423 -67.3216 -67.3037 -66.5349 -34.0154 -33.9749 -33.9316 -33.2534
   -33.2211 -33.2210 -33.2044 -33.2020 -33.1766 -32.6620 -32.6510 -32.6492
     1.1503  10.3980  12.3632  12.6345  14.0097  14.9058  16.3026  16.3044
    16.6884  16.7032  17.1802  18.1821  18.3309  18.7858  18.7917  19.0851
    19.3045  19.5824  19.6174  19.8233  20.1434  20.3061  20.3651  20.7426
    23.1033  23.5995

          k = 0.0000 0.2222 0.2222 ( 22347 PWs)   bands (ev):

   -67.3511 -67.3107 -67.3059 -66.5347 -34.0285 -33.9778 -33.9264 -33.2581
   -33.2255 -33.2230 -33.2046 -33.1996 -33.1669 -32.6565 -32.6483 -32.6425
     0.9508  11.4993  11.8225  12.7781  13.2517  15.6151  15.7741  15.9975
    16.3299  16.3639  17.6311  18.2674  18.3697  18.5064  18.5789  19.6838
    19.7682  19.8181  19.9194  20.0934  20.4438  20.4480  20.5156  20.6852
    23.1193  23.9535

          k = 0.0000 0.2222 0.3333 ( 22378 PWs)   bands (ev):

   -67.3449 -67.3157 -67.3069 -66.5348 -34.0435 -33.9744 -33.9053 -33.2718
   -33.2253 -33.2197 -33.2088 -33.2028 -33.1557 -32.6582 -32.6520 -32.6450
     1.1765  10.8720  11.6513  12.5971  13.6635  15.5698  16.0779  16.2383
    16.5925  16.6218  17.4053  17.9796  18.2661  18.5839  18.5889  19.5184
    19.5369  19.7119  19.7456  19.8916  20.4108  20.4112  20.4842  20.6815
    23.0117  23.7346

          k = 0.0000 0.2222 0.4444 ( 22313 PWs)   bands (ev):

   -67.3388 -67.3214 -67.3071 -66.5350 -34.0512 -33.9721 -33.8936 -33.2794
   -33.2241 -33.2177 -33.2127 -33.2048 -33.1498 -32.6576 -32.6544 -32.6482
     1.3358  10.3962  11.6143  12.4905  14.2182  15.2001  16.3418  16.4885
    16.7635  16.8472  17.1758  17.7081  18.1344  18.6119  18.8661  19.1780
    19.3755  19.6222  19.6728  19.8138  20.3956  20.4158  20.4757  20.5146
    23.0491  23.6575

          k = 0.0000 0.3333 0.3333 ( 22321 PWs)   bands (ev):

   -67.3393 -67.3174 -67.3106 -66.5350 -34.0659 -33.9711 -33.8791 -33.2897
   -33.2277 -33.2162 -33.2160 -33.2060 -33.1380 -32.6559 -32.6558 -32.6452
     1.4041  10.8322  10.8971  12.4378  14.0754  15.8684  16.0260  16.4610
    16.7898  16.7992  17.2932  17.6316  18.0637  18.5080  18.7331  19.3590
    19.5306  19.5351  19.7315  19.9250  20.1460  20.5075  20.5141  20.8578
    22.5357  24.3136

          k = 0.0000 0.3333 0.4444 ( 22307 PWs)   bands (ev):

   -67.3335 -67.3213 -67.3122 -66.5351 -34.0776 -33.9689 -33.8647 -33.2994
   -33.2280 -33.2221 -33.2139 -33.2081 -33.1285 -32.6583 -32.6525 -32.6472
     1.5649  10.3854  10.8479  12.3422  14.5567  15.6033  16.2204  16.6899
    16.8596  17.0666  17.1527  17.3660  17.9800  18.4027  18.9746  19.2077
    19.2668  19.5031  19.5850  20.0349  20.0962  20.5261  20.5916  20.7766
    22.3311  24.3170

          k = 0.0000 0.4444 0.4444 ( 22336 PWs)   bands (ev):

   -67.3275 -67.3217 -67.3177 -66.5352 -34.0916 -33.9668 -33.8491 -33.3101
   -33.2302 -33.2285 -33.2115 -33.2102 -33.1169 -32.6608 -32.6488 -32.6471
     1.7272  10.3719  10.3759  12.2525  14.9224  15.9622  15.9823  16.8462
    16.9118  16.9142  17.1167  17.5508  17.9122  18.1334  19.0470  19.0623
    19.3046  19.4724  19.5336  19.7153  20.2629  20.5388  20.7788  20.8779
    21.8698  24.8268

          k = 0.1111 0.1111 0.1111 ( 22382 PWs)   bands (ev):

   -67.3584 -67.3049 -67.3049 -66.5344 -34.0112 -33.9681 -33.9681 -33.2359
   -33.2306 -33.2306 -33.1954 -33.1954 -33.1827 -32.6500 -32.6413 -32.6413
     0.6534  11.8237  12.7773  12.7773  13.1937  15.4347  15.4347  15.7980
    15.7980  15.9801  17.8994  18.1709  18.1709  18.7708  18.7708  20.0061
    20.1165  20.1423  20.1423  20.4009  20.4009  20.4023  20.6833  20.6833
    23.1813  24.0626

          k = 0.1111 0.1111 0.2222 ( 22349 PWs)   bands (ev):

   -67.3539 -67.3091 -67.3048 -66.5346 -34.0255 -33.9652 -33.9473 -33.2433
   -33.2379 -33.2286 -33.1953 -33.1926 -33.1770 -32.6558 -32.6436 -32.6431
     0.8366  11.5662  12.4037  12.5863  13.2016  15.5071  15.6957  15.9216
    16.1320  16.2325  17.7286  18.2747  18.2896  18.6804  18.6806  19.6474
    19.7886  19.9249  19.9928  20.2991  20.4495  20.4717  20.5383  20.7274
    23.2587  23.5524

          k = 0.1111 0.1111 0.3333 ( 22345 PWs)   bands (ev):

   -67.3474 -67.3154 -67.3048 -66.5348 -34.0352 -33.9620 -33.9301 -33.2514
   -33.2455 -33.2239 -33.1936 -33.1923 -33.1727 -32.6597 -32.6476 -32.6463
     1.0617  10.8681  12.3700  12.3992  13.5155  15.4059  16.0631  16.1449
    16.4747  16.5169  17.4470  18.2332  18.3238  18.6237  18.6587  19.2550
    19.5477  19.7155  19.8097  20.1303  20.3510  20.3765  20.5343  20.6671
    23.2545  23.4791

          k = 0.1111 0.1111 0.4444 ( 22326 PWs)   bands (ev):

   -67.3411 -67.3215 -67.3048 -66.5349 -34.0400 -33.9599 -33.9204 -33.2562
   -33.2502 -33.2198 -33.1938 -33.1921 -33.1706 -32.6606 -32.6523 -32.6480
     1.2203  10.3943  12.2895  12.3296  14.0812  15.0141  16.3634  16.3825
    16.6155  16.8203  17.1839  17.9898  18.2137  18.7874  18.8094  19.0183
    19.2800  19.6464  19.6874  20.0053  20.1070  20.3070  20.5548  20.6460
    23.2678  23.5692

          k = 0.1111 0.2222 0.2222 ( 22359 PWs)   bands (ev):

   -67.3498 -67.3107 -67.3071 -66.5347 -34.0485 -33.9563 -33.9256 -33.2587
   -33.2400 -33.2388 -33.1904 -33.1874 -33.1655 -32.6597 -32.6454 -32.6427
     1.0204  11.5143  11.7666  12.3872  13.3761  15.7045  15.8409  16.1111
    16.3314  16.3850  17.6417  18.2108  18.2630  18.5894  18.6019  19.4316
    19.5367  19.8336  19.8428  20.2441  20.4425  20.4846  20.7328  20.8288
    23.2305  23.9475

          k = 0.1111 0.2222 0.3333 ( 22349 PWs)   bands (ev):

   -67.3438 -67.3157 -67.3079 -66.5349 -34.0654 -33.9523 -33.9039 -33.2733
   -33.2497 -33.2378 -33.1876 -33.1851 -33.1549 -32.6607 -32.6484 -32.6446
     1.2468  10.8576  11.6118  12.2612  13.7620  15.6579  16.1554  16.3305
    16.5272  16.6655  17.4262  17.9407  18.1451  18.6008  18.6609  19.2782
    19.3047  19.7071  19.8064  20.0899  20.3806  20.4335  20.7265  20.8367
    23.1215  23.7700

          k = 0.1111 0.2222 0.4444 ( 22327 PWs)   bands (ev):

   -67.3378 -67.3214 -67.3080 -66.5350 -34.0743 -33.9501 -33.8915 -33.2813
   -33.2555 -33.2366 -33.1858 -33.1850 -33.1491 -32.6579 -32.6529 -32.6466
     1.4066  10.3802  11.5688  12.1838  14.2831  15.2976  16.4054  16.5688
    16.6594  16.9778  17.1956  17.6110  18.0539  18.6269  18.8412  19.0778
    19.1793  19.7032  19.8061  19.9543  20.3198  20.3832  20.4882  20.8723
    23.1473  23.7266

          k = 0.1111 0.3333 0.3333 ( 22337 PWs)   bands (ev):

   -67.3384 -67.3174 -67.3114 -66.5350 -34.0885 -33.9479 -33.8787 -33.2920
   -33.2524 -33.2490 -33.1846 -33.1828 -33.1378 -32.6596 -32.6496 -32.6445
     1.4753  10.8126  10.8549  12.1299  14.1548  15.9505  16.0733  16.5540
    16.6813  16.8733  17.3269  17.6480  17.9844  18.5075  18.7407  19.0990
    19.3925  19.5427  19.9240  19.9251  20.2618  20.4114  20.8987  20.9782
    22.5962  24.2112

          k = 0.1111 0.3333 0.4444 ( 22312 PWs)   bands (ev):

   -67.3329 -67.3213 -67.3128 -66.5351 -34.1008 -33.9456 -33.8644 -33.3022
   -33.2583 -33.2513 -33.1830 -33.1823 -33.1283 -32.6577 -32.6501 -32.6459
     1.6370  10.3570  10.8093  12.0489  14.6042  15.6785  16.2442  16.7774
    16.8628  17.0625  17.1775  17.4110  17.9285  18.4039  18.8158  18.9915
    19.3559  19.5852  19.7346  19.9967  20.1410  20.5096  20.7323  21.0733
    22.3521  24.2450

          k = 0.1111 0.4444 0.4444 ( 22321 PWs)   bands (ev):

   -67.3272 -67.3217 -67.3180 -66.5351 -34.1151 -33.9434 -33.8490 -33.3132
   -33.2603 -33.2597 -33.1817 -33.1814 -33.1168 -32.6582 -32.6471 -32.6458
     1.8004  10.3374  10.3389  11.9664  14.9331  15.9995  16.0394  16.8469
    16.9394  17.0015  17.1565  17.6201  17.8812  18.1383  18.6870  19.0344
    19.4391  19.5801  19.6276  19.9200  19.9911  20.7274  20.8657  21.1314
    21.8236  24.5857

          k = 0.2222 0.2222 0.2222 ( 22364 PWs)   bands (ev):

   -67.3461 -67.3107 -67.3107 -66.5348 -34.0772 -33.9236 -33.9236 -33.2611
   -33.2611 -33.2584 -33.1744 -33.1744 -33.1596 -32.6627 -32.6431 -32.6431
     1.2055  11.5058  11.6334  11.6334  13.6118  15.9657  15.9657  16.3812
    16.3963  16.3963  17.6135  18.0862  18.0862  18.6338  18.6338  19.2218
    19.2256  19.7410  19.7410  20.3385  20.4373  20.4373  21.0804  21.0804
    23.3975  23.8155

          k = 0.2222 0.2222 0.3333 ( 22337 PWs)   bands (ev):

   -67.3407 -67.3159 -67.3106 -66.5349 -34.0993 -33.9213 -33.8970 -33.2782
   -33.2759 -33.2613 -33.1694 -33.1639 -33.1501 -32.6617 -32.6446 -32.6436
     1.4339  10.8145  11.4943  11.5405  14.0010  15.8918  16.3474  16.3802
    16.5661  16.7440  17.4590  17.8195  17.9649  18.6059  18.6852  18.9747
    19.2133  19.6810  19.7895  20.2387  20.3910  20.4171  20.9560  21.2858
    23.3376  23.6139

          k = 0.2222 0.2222 0.4444 ( 22307 PWs)   bands (ev):

   -67.3351 -67.3213 -67.3106 -66.5350 -34.1110 -33.9198 -33.8822 -33.2876
   -33.2846 -33.2623 -33.1677 -33.1591 -33.1440 -32.6572 -32.6494 -32.6439
     1.5955  10.3374  11.4094  11.5222  14.4638  15.5469  16.4099  16.6963
    16.7872  17.0774  17.2510  17.4547  17.9244  18.6156  18.7204  18.7988
    19.2517  19.7834  19.8996  20.1213  20.3450  20.3570  20.5391  21.3921
    23.3749  23.4640

          k = 0.2222 0.3333 0.3333 ( 22334 PWs)   bands (ev):

   -67.3360 -67.3173 -67.3137 -66.5350 -34.1261 -33.9090 -33.8778 -33.2980
   -33.2825 -33.2786 -33.1585 -33.1566 -33.1369 -32.6591 -32.6437 -32.6427
     1.6654  10.7519  10.7600  11.4199  14.3573  16.1252  16.1726  16.5860
    16.7956  16.9207  17.4226  17.6828  17.8432  18.5148  18.6477  18.7611
    19.3526  19.6422  19.8905  20.1765  20.3804  20.3976  21.0671  21.4863
    22.7514  23.7080

          k = 0.2222 0.3333 0.4444 ( 22311 PWs)   bands (ev):

   -67.3310 -67.3213 -67.3146 -66.5351 -34.1405 -33.9061 -33.8631 -33.3091
   -33.2912 -33.2830 -33.1561 -33.1519 -33.1278 -32.6546 -32.6455 -32.6424
     1.8297  10.2854  10.7139  11.3581  14.7231  15.8568  16.2687  16.8384
    17.0107  17.0609  17.3087  17.5573  17.8460  18.4191  18.5339  18.7261
    19.4679  19.7473  19.9626  20.0613  20.3211  20.4544  20.7323  21.6898
    22.3543  23.6882

          k = 0.2222 0.4444 0.4444 ( 22319 PWs)   bands (ev):

   -67.3263 -67.3217 -67.3188 -66.5351 -34.1565 -33.9021 -33.8488 -33.3211
   -33.2949 -33.2942 -33.1507 -33.1504 -33.1167 -32.6516 -32.6431 -32.6426
     1.9963  10.2480  10.2522  11.2852  14.9443  16.0837  16.1701  16.6779
    17.2034  17.2399  17.3383  17.7454  17.8434  18.1950  18.3676  18.7276
    19.6942  19.7350  19.8894  19.9599  20.2300  20.6467  20.8152  21.6136
    21.8566  23.8905

          k = 0.3333 0.3333 0.3333 ( 22340 PWs)   bands (ev):

   -67.3323 -67.3173 -67.3173 -66.5351 -34.1567 -33.8768 -33.8768 -33.3057
   -33.3057 -33.2999 -33.1403 -33.1403 -33.1333 -32.6547 -32.6407 -32.6407
     1.9015  10.6412  10.6412  10.7353  14.6291  16.0840  16.4466  16.4466
    17.0958  17.0958  17.5102  17.7474  17.7474  18.4508  18.5257  18.5257
    19.5065  19.8516  19.8516  20.2899  20.3763  20.3763  21.3677  21.3677
    22.9691  22.9691

          k = 0.3333 0.3333 0.4444 ( 22303 PWs)   bands (ev):

   -67.3282 -67.3213 -67.3173 -66.5351 -34.1733 -33.8761 -33.8590 -33.3184
   -33.3145 -33.3075 -33.1376 -33.1312 -33.1256 -32.6492 -32.6413 -32.6393
     2.0697  10.2052  10.5721  10.6657  14.8542  16.0353  16.2877  16.6329
    17.3154  17.3327  17.5108  17.7318  17.8245  18.2901  18.4215  18.5174
    19.6669  19.9044  20.0204  20.2103  20.3908  20.4084  20.7762  21.7177
    22.3424  23.1532

          k = 0.3333 0.4444 0.4444 ( 22324 PWs)   bands (ev):

   -67.3250 -67.3216 -67.3201 -66.5351 -34.1913 -33.8675 -33.8487 -33.3299
   -33.3214 -33.3206 -33.1284 -33.1281 -33.1166 -32.6440 -32.6389 -32.6387
     2.2412  10.1492  10.1587  10.5579  14.9331  16.1687  16.2823  16.4796
    17.5926  17.5995  17.6672  17.8604  17.8668  18.1337  18.3002  18.4926
    19.8640  19.9513  20.0419  20.1418  20.4200  20.4856  20.7230  21.2313
    22.3664  23.1199

          k = 0.4444 0.4444 0.4444 ( 22316 PWs)   bands (ev):

   -67.3234 -67.3216 -67.3216 -66.5351 -34.2104 -33.8485 -33.8485 -33.3357
   -33.3357 -33.3347 -33.1169 -33.1169 -33.1160 -32.6385 -32.6364 -32.6364
     2.4170  10.0870  10.0870  10.1095  14.9150  16.2388  16.3300  16.3300
    17.8950  17.8950  17.9811  17.9811  17.9853  18.0026  18.3665  18.3665
    20.0133  20.0712  20.0712  20.2608  20.3450  20.3450  20.7351  20.7351
    22.6691  22.6691

     the Fermi energy is    18.7319 ev

!    total energy              =   -1345.17157377 Ry
     Harris-Foulkes estimate   =   -1345.17157377 Ry
     estimated scf accuracy    <          4.7E-10 Ry

     total all-electron energy =    -10291.773209 Ry

     The total energy is the sum of the following terms:

     one-electron contribution =    -446.73822690 Ry
     hartree contribution      =     269.20312814 Ry
     xc contribution           =    -117.08760972 Ry
     ewald contribution        =    -711.61403732 Ry
     one-center paw contrib.   =    -338.93491917 Ry
     smearing contrib. (-TS)   =       0.00009121 Ry

     total magnetization       =     7.68 Bohr mag/cell
     absolute magnetization    =     8.03 Bohr mag/cell

     convergence has been achieved in  26 iterations

     Forces acting on atoms (Ry/au):


     negative rho (up, down):  0.000E+00 2.076E-04
     atom    1 type  1   force =     0.00000000    0.00000000    0.00000000
     atom    2 type  1   force =     0.00000000    0.00000000    0.00000000
     atom    3 type  1   force =     0.00000000    0.00000000    0.00000000
     atom    4 type  1   force =     0.00000000    0.00000000    0.00000000
     atom    5 type  2   force =     0.00000000    0.00000000    0.00000000

     Total force =     0.000000     Total SCF correction =     0.000000


     entering subroutine stress ...


     negative rho (up, down):  0.000E+00 2.076E-04
          total   stress  (Ry/bohr**3)                   (kbar)     P=  150.56
   0.00102348   0.00000000   0.00000000        150.56      0.00      0.00
   0.00000000   0.00102348   0.00000000          0.00    150.56      0.00
   0.00000000   0.00000000   0.00102348          0.00      0.00    150.56


     Writing output data file config.save
 
     init_run     :     13.01s CPU     13.34s WALL (       1 calls)
     electrons    :    934.20s CPU    942.61s WALL (       1 calls)
     forces       :      2.88s CPU      2.94s WALL (       1 calls)
     stress       :     17.37s CPU     17.60s WALL (       1 calls)

     Called by init_run:
     wfcinit      :     11.36s CPU     11.54s WALL (       1 calls)
     potinit      :      0.65s CPU      0.69s WALL (       1 calls)

     Called by electrons:
     c_bands      :    722.94s CPU    726.97s WALL (      26 calls)
     sum_band     :    186.90s CPU    189.62s WALL (      26 calls)
     v_of_rho     :      6.08s CPU      6.15s WALL (      27 calls)
     newd         :      7.52s CPU      8.75s WALL (      27 calls)
     mix_rho      :      1.74s CPU      1.75s WALL (      26 calls)

     Called by c_bands:
     init_us_2    :     14.19s CPU     14.35s WALL (    3850 calls)
     cegterg      :    676.92s CPU    680.63s WALL (    1820 calls)

     Called by sum_band:
     sum_band:bec :      0.06s CPU      0.06s WALL (    1820 calls)
     addusdens    :     19.92s CPU     21.73s WALL (      26 calls)

     Called by *egterg:
     h_psi        :    533.58s CPU    536.66s WALL (    6253 calls)
     s_psi        :     20.57s CPU     20.65s WALL (    6253 calls)
     g_psi        :      3.42s CPU      3.44s WALL (    4363 calls)
     cdiaghg      :     17.13s CPU     17.23s WALL (    6183 calls)

     Called by h_psi:
     add_vuspsi   :     19.65s CPU     19.78s WALL (    6253 calls)

     General routines
     calbec       :     26.66s CPU     26.81s WALL (    8423 calls)
     fft          :      4.14s CPU      4.18s WALL (     871 calls)
     ffts         :      0.16s CPU      0.16s WALL (     106 calls)
     fftw         :    451.35s CPU    453.92s WALL (  436650 calls)
     interpolate  :      0.90s CPU      0.90s WALL (     106 calls)
     davcio       :      0.19s CPU      0.89s WALL (      70 calls)
 
     Parallel routines
     fft_scatter  :    216.38s CPU    217.78s WALL (  437627 calls)

     PAW routines
     PAW_pot      :      9.06s CPU      9.41s WALL (      27 calls)
     PAW_symme    :      0.04s CPU      0.04s WALL (      53 calls)
 
     PWSCF        : 16m 8.40s CPU    16m18.33s WALL

 
   This run was terminated on:   2:33: 5  27Oct2020            

=------------------------------------------------------------------------------=
   JOB DONE.
=------------------------------------------------------------------------------=
