
     Program PWSCF v.5.2.0 starts on 26Oct2020 at 22:37:46 

     This program is part of the open-source Quantum ESPRESSO suite
     for quantum simulation of materials; please cite
         "P. Giannozzi et al., J. Phys.:Condens. Matter 21 395502 (2009);
          URL http://www.quantum-espresso.org", 
     in publications or presentations arising from this work. More details at
     http://www.quantum-espresso.org/quote

     Parallel version (MPI), running on     6 processors
     R & G space division:  proc/nbgrp/npool/nimage =       6
     Reading input from 3.in

     Current dimensions of program PWSCF are:
     Max number of different atomic species (ntypx) = 10
     Max number of k-points (npk) =  40000
     Max angular momentum in pseudopotentials (lmaxx) =  3

     IMPORTANT: XC functional enforced from input :
     Exchange-correlation      = PBE ( 1  4  3  4 0 0)
     Any further DFT definition will be discarded
     Please, verify this is what you really want

               file Fe_PSEUDO: wavefunction(s)  3P 3D renormalized
               file N_PSEUDO: wavefunction(s)  2S renormalized

     Subspace diagonalization in iterative solution of the eigenvalue problem:
     a serial algorithm will be used

 
     Parallelization info
     --------------------
     sticks:   dense  smooth     PW     G-vecs:    dense   smooth      PW
     Min         308     204     59                 9895     5396     839
     Max         310     205     60                 9896     5415     843
     Sum        1853    1225    357                59373    32423    5041
 
     Generating pointlists ...
     new r_m :   0.2063 (alat units)  1.4318 (a.u.) for type    1
     new r_m :   0.2063 (alat units)  1.4318 (a.u.) for type    2


     bravais-lattice index     =            0
     lattice parameter (alat)  =       6.9422  a.u.
     unit-cell volume          =     334.5777 (a.u.)^3
     number of atoms/cell      =            5
     number of atomic types    =            2
     number of electrons       =        69.00
     number of Kohn-Sham states=           42
     kinetic-energy cutoff     =      80.0000  Ry
     charge density cutoff     =     480.0000  Ry
     convergence threshold     =      1.0E-08
     mixing beta               =       0.7000
     number of iterations used =            8  plain     mixing
     Exchange-correlation      = PBE ( 1  4  3  4 0 0)

     celldm(1)=   6.942230  celldm(2)=   0.000000  celldm(3)=   0.000000
     celldm(4)=   0.000000  celldm(5)=   0.000000  celldm(6)=   0.000000

     crystal axes: (cart. coord. in units of alat)
               a(1) = (   1.000000   0.000000   0.000000 )  
               a(2) = (   0.000000   1.000000   0.000000 )  
               a(3) = (   0.000000   0.000000   1.000000 )  

     reciprocal axes: (cart. coord. in units 2 pi/alat)
               b(1) = (  1.000000  0.000000  0.000000 )  
               b(2) = (  0.000000  1.000000  0.000000 )  
               b(3) = (  0.000000  0.000000  1.000000 )  


     PseudoPot. # 1 for Fe read from file:
     pseudo/Fe_PSEUDO
     MD5 check sum: e30d5f36a6f0cb983ee41abee56170da
     Pseudo is Projector augmented-wave + core cor, Zval = 16.0
     Generated using "atomic" code by A. Dal Corso  v.6.3
     Shape of augmentation charge: PSQ
     Using radial grid of 1191 points,  6 beta functions with: 
                l(1) =   0
                l(2) =   0
                l(3) =   1
                l(4) =   1
                l(5) =   2
                l(6) =   2
     Q(r) pseudized with 0 coefficients 


     PseudoPot. # 2 for  N read from file:
     pseudo/N_PSEUDO
     MD5 check sum: 14c48229446f9f2d411169a3abcbc3fa
     Pseudo is Projector augmented-wave + core cor, Zval =  5.0
     Generated using "atomic" code by A. Dal Corso  v.6.3
     Shape of augmentation charge: PSQ
     Using radial grid of 1085 points,  4 beta functions with: 
                l(1) =   0
                l(2) =   0
                l(3) =   1
                l(4) =   1
     Q(r) pseudized with 0 coefficients 


     atomic species   valence    mass     pseudopotential
        Fe            16.00    55.84500     Fe( 1.00)
        N              5.00    14.00650      N( 1.00)

     Starting magnetic structure 
     atomic species   magnetization
        Fe           0.500
        N           -0.010

     48 Sym. Ops., with inversion, found



   Cartesian axes

     site n.     atom                  positions (alat units)
         1           Fe  tau(   1) = (   0.0000000   0.5000000   0.5000000  )
         2           Fe  tau(   2) = (   0.5000000   0.5000000   0.0000000  )
         3           Fe  tau(   3) = (   0.5000000   0.0000000   0.5000000  )
         4           Fe  tau(   4) = (   0.0000000   0.0000000   0.0000000  )
         5           N   tau(   5) = (   0.5000000   0.5000000   0.5000000  )

     number of k points=    70  Marzari-Vanderbilt smearing, width (Ry)=  0.0050
                       cart. coord. in units 2pi/alat
        k(    1) = (   0.0000000   0.0000000   0.0000000), wk =   0.0013717
        k(    2) = (   0.0000000   0.0000000   0.1111111), wk =   0.0082305
        k(    3) = (   0.0000000   0.0000000   0.2222222), wk =   0.0082305
        k(    4) = (   0.0000000   0.0000000   0.3333333), wk =   0.0082305
        k(    5) = (   0.0000000   0.0000000   0.4444444), wk =   0.0082305
        k(    6) = (   0.0000000   0.1111111   0.1111111), wk =   0.0164609
        k(    7) = (   0.0000000   0.1111111   0.2222222), wk =   0.0329218
        k(    8) = (   0.0000000   0.1111111   0.3333333), wk =   0.0329218
        k(    9) = (   0.0000000   0.1111111   0.4444444), wk =   0.0329218
        k(   10) = (   0.0000000   0.2222222   0.2222222), wk =   0.0164609
        k(   11) = (   0.0000000   0.2222222   0.3333333), wk =   0.0329218
        k(   12) = (   0.0000000   0.2222222   0.4444444), wk =   0.0329218
        k(   13) = (   0.0000000   0.3333333   0.3333333), wk =   0.0164609
        k(   14) = (   0.0000000   0.3333333   0.4444444), wk =   0.0329218
        k(   15) = (   0.0000000   0.4444444   0.4444444), wk =   0.0164609
        k(   16) = (   0.1111111   0.1111111   0.1111111), wk =   0.0109739
        k(   17) = (   0.1111111   0.1111111   0.2222222), wk =   0.0329218
        k(   18) = (   0.1111111   0.1111111   0.3333333), wk =   0.0329218
        k(   19) = (   0.1111111   0.1111111   0.4444444), wk =   0.0329218
        k(   20) = (   0.1111111   0.2222222   0.2222222), wk =   0.0329218
        k(   21) = (   0.1111111   0.2222222   0.3333333), wk =   0.0658436
        k(   22) = (   0.1111111   0.2222222   0.4444444), wk =   0.0658436
        k(   23) = (   0.1111111   0.3333333   0.3333333), wk =   0.0329218
        k(   24) = (   0.1111111   0.3333333   0.4444444), wk =   0.0658436
        k(   25) = (   0.1111111   0.4444444   0.4444444), wk =   0.0329218
        k(   26) = (   0.2222222   0.2222222   0.2222222), wk =   0.0109739
        k(   27) = (   0.2222222   0.2222222   0.3333333), wk =   0.0329218
        k(   28) = (   0.2222222   0.2222222   0.4444444), wk =   0.0329218
        k(   29) = (   0.2222222   0.3333333   0.3333333), wk =   0.0329218
        k(   30) = (   0.2222222   0.3333333   0.4444444), wk =   0.0658436
        k(   31) = (   0.2222222   0.4444444   0.4444444), wk =   0.0329218
        k(   32) = (   0.3333333   0.3333333   0.3333333), wk =   0.0109739
        k(   33) = (   0.3333333   0.3333333   0.4444444), wk =   0.0329218
        k(   34) = (   0.3333333   0.4444444   0.4444444), wk =   0.0329218
        k(   35) = (   0.4444444   0.4444444   0.4444444), wk =   0.0109739
        k(   36) = (   0.0000000   0.0000000   0.0000000), wk =   0.0013717
        k(   37) = (   0.0000000   0.0000000   0.1111111), wk =   0.0082305
        k(   38) = (   0.0000000   0.0000000   0.2222222), wk =   0.0082305
        k(   39) = (   0.0000000   0.0000000   0.3333333), wk =   0.0082305
        k(   40) = (   0.0000000   0.0000000   0.4444444), wk =   0.0082305
        k(   41) = (   0.0000000   0.1111111   0.1111111), wk =   0.0164609
        k(   42) = (   0.0000000   0.1111111   0.2222222), wk =   0.0329218
        k(   43) = (   0.0000000   0.1111111   0.3333333), wk =   0.0329218
        k(   44) = (   0.0000000   0.1111111   0.4444444), wk =   0.0329218
        k(   45) = (   0.0000000   0.2222222   0.2222222), wk =   0.0164609
        k(   46) = (   0.0000000   0.2222222   0.3333333), wk =   0.0329218
        k(   47) = (   0.0000000   0.2222222   0.4444444), wk =   0.0329218
        k(   48) = (   0.0000000   0.3333333   0.3333333), wk =   0.0164609
        k(   49) = (   0.0000000   0.3333333   0.4444444), wk =   0.0329218
        k(   50) = (   0.0000000   0.4444444   0.4444444), wk =   0.0164609
        k(   51) = (   0.1111111   0.1111111   0.1111111), wk =   0.0109739
        k(   52) = (   0.1111111   0.1111111   0.2222222), wk =   0.0329218
        k(   53) = (   0.1111111   0.1111111   0.3333333), wk =   0.0329218
        k(   54) = (   0.1111111   0.1111111   0.4444444), wk =   0.0329218
        k(   55) = (   0.1111111   0.2222222   0.2222222), wk =   0.0329218
        k(   56) = (   0.1111111   0.2222222   0.3333333), wk =   0.0658436
        k(   57) = (   0.1111111   0.2222222   0.4444444), wk =   0.0658436
        k(   58) = (   0.1111111   0.3333333   0.3333333), wk =   0.0329218
        k(   59) = (   0.1111111   0.3333333   0.4444444), wk =   0.0658436
        k(   60) = (   0.1111111   0.4444444   0.4444444), wk =   0.0329218
        k(   61) = (   0.2222222   0.2222222   0.2222222), wk =   0.0109739
        k(   62) = (   0.2222222   0.2222222   0.3333333), wk =   0.0329218
        k(   63) = (   0.2222222   0.2222222   0.4444444), wk =   0.0329218
        k(   64) = (   0.2222222   0.3333333   0.3333333), wk =   0.0329218
        k(   65) = (   0.2222222   0.3333333   0.4444444), wk =   0.0658436
        k(   66) = (   0.2222222   0.4444444   0.4444444), wk =   0.0329218
        k(   67) = (   0.3333333   0.3333333   0.3333333), wk =   0.0109739
        k(   68) = (   0.3333333   0.3333333   0.4444444), wk =   0.0329218
        k(   69) = (   0.3333333   0.4444444   0.4444444), wk =   0.0329218
        k(   70) = (   0.4444444   0.4444444   0.4444444), wk =   0.0109739

     Dense  grid:    59373 G-vectors     FFT dimensions: (  50,  50,  50)

     Smooth grid:    32423 G-vectors     FFT dimensions: (  40,  40,  40)

     Largest allocated arrays     est. size (Mb)     dimensions
        Kohn-Sham Wavefunctions         0.44 Mb     (     680,   42)
        NL pseudopotentials             0.83 Mb     (     680,   80)
        Each V/rho on FFT grid          0.69 Mb     (   22500,   2)
        Each G-vector array             0.08 Mb     (    9896)
        G-vector shells                 0.00 Mb     (     486)
     Largest temporary arrays     est. size (Mb)     dimensions
        Auxiliary wavefunctions         1.74 Mb     (     680,  168)
        Each subspace H/S matrix        0.43 Mb     (     168,  168)
        Each <psi_i|beta_j> matrix      0.05 Mb     (      80,   42)
        Arrays for rho mixing           2.75 Mb     (   22500,    8)

     Check: negative/imaginary core charge=   -0.000003    0.000000

     Initial potential from superposition of free atoms

     starting charge   68.99837, renormalised to   69.00000
     Starting wfc are   44 randomized atomic wfcs
     Checking if some PAW data can be deallocated... 

     total cpu time spent up to now is        2.9 secs

     per-process dynamical memory:    59.8 Mb

     Self-consistent Calculation

     iteration #  1     ecut=    80.00 Ry     beta=0.70
     Davidson diagonalization with overlap
     ethr =  1.00E-02,  avg # of iterations =  3.1

     negative rho (up, down):  0.000E+00 1.056E-03
 
     Magnetic moment per site:
     atom:    1    charge:   12.7323    magn:    4.0981    constr:    0.0000
     atom:    2    charge:   12.7323    magn:    4.0981    constr:    0.0000
     atom:    3    charge:   12.7323    magn:    4.0981    constr:    0.0000
     atom:    4    charge:   12.6131    magn:    4.1671    constr:    0.0000
     atom:    5    charge:    4.6357    magn:    0.1182    constr:    0.0000

     total cpu time spent up to now is        9.2 secs

     total energy              =   -1344.13241146 Ry
     Harris-Foulkes estimate   =   -1343.43417552 Ry
     estimated scf accuracy    <       2.86705257 Ry

     total magnetization       =    13.87 Bohr mag/cell
     absolute magnetization    =    14.05 Bohr mag/cell

     iteration #  2     ecut=    80.00 Ry     beta=0.70
     Davidson diagonalization with overlap
     ethr =  4.16E-03,  avg # of iterations =  3.3

     negative rho (up, down):  0.000E+00 9.068E-04
 
     Magnetic moment per site:
     atom:    1    charge:   12.7234    magn:    3.8168    constr:    0.0000
     atom:    2    charge:   12.7234    magn:    3.8168    constr:    0.0000
     atom:    3    charge:   12.7234    magn:    3.8168    constr:    0.0000
     atom:    4    charge:   13.0642    magn:    3.5704    constr:    0.0000
     atom:    5    charge:    4.2256    magn:    0.0568    constr:    0.0000

     total cpu time spent up to now is       15.7 secs

     total energy              =   -1343.28968197 Ry
     Harris-Foulkes estimate   =   -1345.73593627 Ry
     estimated scf accuracy    <       8.50174184 Ry

     total magnetization       =     9.38 Bohr mag/cell
     absolute magnetization    =    10.50 Bohr mag/cell

     iteration #  3     ecut=    80.00 Ry     beta=0.70
     Davidson diagonalization with overlap
     ethr =  4.16E-03,  avg # of iterations =  3.5

     negative rho (up, down):  0.000E+00 6.874E-04
 
     Magnetic moment per site:
     atom:    1    charge:   12.8840    magn:    3.4480    constr:    0.0000
     atom:    2    charge:   12.8840    magn:    3.4480    constr:    0.0000
     atom:    3    charge:   12.8840    magn:    3.4480    constr:    0.0000
     atom:    4    charge:   12.8112    magn:    3.0182    constr:    0.0000
     atom:    5    charge:    4.0297    magn:    0.0239    constr:    0.0000

     total cpu time spent up to now is       22.2 secs

     total energy              =   -1343.60962948 Ry
     Harris-Foulkes estimate   =   -1346.17794532 Ry
     estimated scf accuracy    <      25.53524398 Ry

     total magnetization       =     3.80 Bohr mag/cell
     absolute magnetization    =     4.50 Bohr mag/cell

     iteration #  4     ecut=    80.00 Ry     beta=0.70
     Davidson diagonalization with overlap
     ethr =  4.16E-03,  avg # of iterations =  3.2

     negative rho (up, down):  0.000E+00 1.242E-03
 
     Magnetic moment per site:
     atom:    1    charge:   12.7732    magn:    2.2626    constr:    0.0000
     atom:    2    charge:   12.7732    magn:    2.2626    constr:    0.0000
     atom:    3    charge:   12.7732    magn:    2.2626    constr:    0.0000
     atom:    4    charge:   12.7274    magn:    1.8792    constr:    0.0000
     atom:    5    charge:    4.0531    magn:   -0.0487    constr:    0.0000

     total cpu time spent up to now is       28.2 secs

     total energy              =   -1345.01665462 Ry
     Harris-Foulkes estimate   =   -1345.09507058 Ry
     estimated scf accuracy    <       0.54939537 Ry

     total magnetization       =    10.75 Bohr mag/cell
     absolute magnetization    =    11.16 Bohr mag/cell

     iteration #  5     ecut=    80.00 Ry     beta=0.70
     Davidson diagonalization with overlap
     ethr =  7.96E-04,  avg # of iterations =  3.2

     negative rho (up, down):  0.000E+00 1.060E-03
 
     Magnetic moment per site:
     atom:    1    charge:   12.8322    magn:    2.1629    constr:    0.0000
     atom:    2    charge:   12.8322    magn:    2.1629    constr:    0.0000
     atom:    3    charge:   12.8322    magn:    2.1629    constr:    0.0000
     atom:    4    charge:   12.8031    magn:    2.0429    constr:    0.0000
     atom:    5    charge:    4.1098    magn:   -0.0268    constr:    0.0000

     total cpu time spent up to now is       34.4 secs

     total energy              =   -1345.10230205 Ry
     Harris-Foulkes estimate   =   -1345.18979829 Ry
     estimated scf accuracy    <       0.24210555 Ry

     total magnetization       =     9.59 Bohr mag/cell
     absolute magnetization    =     9.95 Bohr mag/cell

     iteration #  6     ecut=    80.00 Ry     beta=0.70
     Davidson diagonalization with overlap
     ethr =  3.51E-04,  avg # of iterations =  3.0

     negative rho (up, down):  0.000E+00 9.518E-04
 
     Magnetic moment per site:
     atom:    1    charge:   12.8260    magn:    2.1151    constr:    0.0000
     atom:    2    charge:   12.8260    magn:    2.1151    constr:    0.0000
     atom:    3    charge:   12.8260    magn:    2.1151    constr:    0.0000
     atom:    4    charge:   12.7920    magn:    2.3711    constr:    0.0000
     atom:    5    charge:    4.1117    magn:    0.0064    constr:    0.0000

     total cpu time spent up to now is       40.3 secs

     total energy              =   -1345.14916356 Ry
     Harris-Foulkes estimate   =   -1345.14492763 Ry
     estimated scf accuracy    <       0.02613968 Ry

     total magnetization       =     9.38 Bohr mag/cell
     absolute magnetization    =     9.72 Bohr mag/cell

     iteration #  7     ecut=    80.00 Ry     beta=0.70
     Davidson diagonalization with overlap
     ethr =  3.79E-05,  avg # of iterations =  1.7

     negative rho (up, down):  0.000E+00 8.399E-04
 
     Magnetic moment per site:
     atom:    1    charge:   12.8267    magn:    1.9570    constr:    0.0000
     atom:    2    charge:   12.8267    magn:    1.9570    constr:    0.0000
     atom:    3    charge:   12.8267    magn:    1.9570    constr:    0.0000
     atom:    4    charge:   12.7719    magn:    2.8102    constr:    0.0000
     atom:    5    charge:    4.1110    magn:    0.0391    constr:    0.0000

     total cpu time spent up to now is       45.4 secs

     total energy              =   -1345.14906590 Ry
     Harris-Foulkes estimate   =   -1345.15092955 Ry
     estimated scf accuracy    <       0.01799815 Ry

     total magnetization       =     9.38 Bohr mag/cell
     absolute magnetization    =     9.71 Bohr mag/cell

     iteration #  8     ecut=    80.00 Ry     beta=0.70
     Davidson diagonalization with overlap
     ethr =  2.61E-05,  avg # of iterations =  2.2

     negative rho (up, down):  0.000E+00 8.037E-04
 
     Magnetic moment per site:
     atom:    1    charge:   12.8298    magn:    1.8619    constr:    0.0000
     atom:    2    charge:   12.8298    magn:    1.8619    constr:    0.0000
     atom:    3    charge:   12.8298    magn:    1.8619    constr:    0.0000
     atom:    4    charge:   12.7743    magn:    2.7250    constr:    0.0000
     atom:    5    charge:    4.1088    magn:    0.0309    constr:    0.0000

     total cpu time spent up to now is       51.2 secs

     total energy              =   -1345.15406353 Ry
     Harris-Foulkes estimate   =   -1345.15308779 Ry
     estimated scf accuracy    <       0.00209916 Ry

     total magnetization       =     9.00 Bohr mag/cell
     absolute magnetization    =     9.35 Bohr mag/cell

     iteration #  9     ecut=    80.00 Ry     beta=0.70
     Davidson diagonalization with overlap
     ethr =  3.04E-06,  avg # of iterations =  2.1

     negative rho (up, down):  0.000E+00 9.160E-04
 
     Magnetic moment per site:
     atom:    1    charge:   12.8277    magn:    1.9948    constr:    0.0000
     atom:    2    charge:   12.8277    magn:    1.9948    constr:    0.0000
     atom:    3    charge:   12.8277    magn:    1.9948    constr:    0.0000
     atom:    4    charge:   12.7733    magn:    2.7579    constr:    0.0000
     atom:    5    charge:    4.1136    magn:    0.0386    constr:    0.0000

     total cpu time spent up to now is       56.5 secs

     total energy              =   -1345.15150329 Ry
     Harris-Foulkes estimate   =   -1345.15489099 Ry
     estimated scf accuracy    <       0.00203279 Ry

     total magnetization       =     8.58 Bohr mag/cell
     absolute magnetization    =     8.96 Bohr mag/cell

     iteration # 10     ecut=    80.00 Ry     beta=0.70
     Davidson diagonalization with overlap
     ethr =  2.95E-06,  avg # of iterations =  1.9

     negative rho (up, down):  0.000E+00 1.004E-03
 
     Magnetic moment per site:
     atom:    1    charge:   12.8262    magn:    2.0841    constr:    0.0000
     atom:    2    charge:   12.8262    magn:    2.0841    constr:    0.0000
     atom:    3    charge:   12.8262    magn:    2.0841    constr:    0.0000
     atom:    4    charge:   12.7743    magn:    2.7412    constr:    0.0000
     atom:    5    charge:    4.1173    magn:    0.0455    constr:    0.0000

     total cpu time spent up to now is       61.8 secs

     total energy              =   -1345.15115226 Ry
     Harris-Foulkes estimate   =   -1345.15295033 Ry
     estimated scf accuracy    <       0.00220350 Ry

     total magnetization       =     9.10 Bohr mag/cell
     absolute magnetization    =     9.44 Bohr mag/cell

     iteration # 11     ecut=    80.00 Ry     beta=0.70
     Davidson diagonalization with overlap
     ethr =  2.95E-06,  avg # of iterations =  1.9

     negative rho (up, down):  0.000E+00 6.545E-04
 
     Magnetic moment per site:
     atom:    1    charge:   12.8329    magn:    1.7263    constr:    0.0000
     atom:    2    charge:   12.8329    magn:    1.7263    constr:    0.0000
     atom:    3    charge:   12.8329    magn:    1.7263    constr:    0.0000
     atom:    4    charge:   12.7742    magn:    2.6970    constr:    0.0000
     atom:    5    charge:    4.1042    magn:    0.0146    constr:    0.0000

     total cpu time spent up to now is       67.2 secs

     total energy              =   -1345.14774468 Ry
     Harris-Foulkes estimate   =   -1345.15170446 Ry
     estimated scf accuracy    <       0.00290303 Ry

     total magnetization       =     9.34 Bohr mag/cell
     absolute magnetization    =     9.68 Bohr mag/cell

     iteration # 12     ecut=    80.00 Ry     beta=0.70
     Davidson diagonalization with overlap
     ethr =  2.95E-06,  avg # of iterations =  3.1

     negative rho (up, down):  0.000E+00 3.367E-04
 
     Magnetic moment per site:
     atom:    1    charge:   12.8406    magn:    1.2999    constr:    0.0000
     atom:    2    charge:   12.8406    magn:    1.2999    constr:    0.0000
     atom:    3    charge:   12.8406    magn:    1.2999    constr:    0.0000
     atom:    4    charge:   12.7734    magn:    2.6501    constr:    0.0000
     atom:    5    charge:    4.0873    magn:   -0.0237    constr:    0.0000

     total cpu time spent up to now is       74.0 secs

     total energy              =   -1345.14741873 Ry
     Harris-Foulkes estimate   =   -1345.15700448 Ry
     estimated scf accuracy    <       0.00127223 Ry

     total magnetization       =     8.20 Bohr mag/cell
     absolute magnetization    =     8.58 Bohr mag/cell

     iteration # 13     ecut=    80.00 Ry     beta=0.70
     Davidson diagonalization with overlap
     ethr =  1.84E-06,  avg # of iterations =  3.4

     negative rho (up, down):  0.000E+00 3.344E-04
 
     Magnetic moment per site:
     atom:    1    charge:   12.8427    magn:    1.1999    constr:    0.0000
     atom:    2    charge:   12.8427    magn:    1.1999    constr:    0.0000
     atom:    3    charge:   12.8427    magn:    1.1999    constr:    0.0000
     atom:    4    charge:   12.7734    magn:    2.6459    constr:    0.0000
     atom:    5    charge:    4.0831    magn:   -0.0335    constr:    0.0000

     total cpu time spent up to now is       81.9 secs

     total energy              =   -1345.15620281 Ry
     Harris-Foulkes estimate   =   -1345.15760785 Ry
     estimated scf accuracy    <       0.00065069 Ry

     total magnetization       =     7.19 Bohr mag/cell
     absolute magnetization    =     7.56 Bohr mag/cell

     iteration # 14     ecut=    80.00 Ry     beta=0.70
     Davidson diagonalization with overlap
     ethr =  9.43E-07,  avg # of iterations =  2.3

     negative rho (up, down):  0.000E+00 3.372E-04
 
     Magnetic moment per site:
     atom:    1    charge:   12.8417    magn:    1.2689    constr:    0.0000
     atom:    2    charge:   12.8417    magn:    1.2689    constr:    0.0000
     atom:    3    charge:   12.8417    magn:    1.2689    constr:    0.0000
     atom:    4    charge:   12.7735    magn:    2.6536    constr:    0.0000
     atom:    5    charge:    4.0849    magn:   -0.0287    constr:    0.0000

     total cpu time spent up to now is       87.2 secs

     total energy              =   -1345.15714931 Ry
     Harris-Foulkes estimate   =   -1345.15682051 Ry
     estimated scf accuracy    <       0.00139878 Ry

     total magnetization       =     6.95 Bohr mag/cell
     absolute magnetization    =     7.31 Bohr mag/cell

     iteration # 15     ecut=    80.00 Ry     beta=0.70
     Davidson diagonalization with overlap
     ethr =  9.43E-07,  avg # of iterations =  1.9

     negative rho (up, down):  0.000E+00 3.384E-04
 
     Magnetic moment per site:
     atom:    1    charge:   12.8424    magn:    1.2487    constr:    0.0000
     atom:    2    charge:   12.8424    magn:    1.2487    constr:    0.0000
     atom:    3    charge:   12.8424    magn:    1.2487    constr:    0.0000
     atom:    4    charge:   12.7740    magn:    2.6626    constr:    0.0000
     atom:    5    charge:    4.0834    magn:   -0.0339    constr:    0.0000

     total cpu time spent up to now is       92.1 secs

     total energy              =   -1345.15736963 Ry
     Harris-Foulkes estimate   =   -1345.15744692 Ry
     estimated scf accuracy    <       0.00087875 Ry

     total magnetization       =     7.12 Bohr mag/cell
     absolute magnetization    =     7.48 Bohr mag/cell

     iteration # 16     ecut=    80.00 Ry     beta=0.70
     Davidson diagonalization with overlap
     ethr =  9.43E-07,  avg # of iterations =  1.0

     negative rho (up, down):  0.000E+00 4.102E-04
 
     Magnetic moment per site:
     atom:    1    charge:   12.8378    magn:    1.4931    constr:    0.0000
     atom:    2    charge:   12.8378    magn:    1.4931    constr:    0.0000
     atom:    3    charge:   12.8378    magn:    1.4931    constr:    0.0000
     atom:    4    charge:   12.7735    magn:    2.6964    constr:    0.0000
     atom:    5    charge:    4.0899    magn:   -0.0208    constr:    0.0000

     total cpu time spent up to now is       96.6 secs

     total energy              =   -1345.15423525 Ry
     Harris-Foulkes estimate   =   -1345.15740332 Ry
     estimated scf accuracy    <       0.00105063 Ry

     total magnetization       =     7.08 Bohr mag/cell
     absolute magnetization    =     7.44 Bohr mag/cell

     iteration # 17     ecut=    80.00 Ry     beta=0.70
     Davidson diagonalization with overlap
     ethr =  9.43E-07,  avg # of iterations =  3.1

     negative rho (up, down):  0.000E+00 4.301E-04
 
     Magnetic moment per site:
     atom:    1    charge:   12.8373    magn:    1.5147    constr:    0.0000
     atom:    2    charge:   12.8373    magn:    1.5147    constr:    0.0000
     atom:    3    charge:   12.8373    magn:    1.5147    constr:    0.0000
     atom:    4    charge:   12.7735    magn:    2.6908    constr:    0.0000
     atom:    5    charge:    4.0912    magn:   -0.0172    constr:    0.0000

     total cpu time spent up to now is      103.9 secs

     total energy              =   -1345.15805154 Ry
     Harris-Foulkes estimate   =   -1345.15812274 Ry
     estimated scf accuracy    <       0.00131218 Ry

     total magnetization       =     7.73 Bohr mag/cell
     absolute magnetization    =     8.07 Bohr mag/cell

     iteration # 18     ecut=    80.00 Ry     beta=0.70
     Davidson diagonalization with overlap
     ethr =  9.43E-07,  avg # of iterations =  1.0

     negative rho (up, down):  0.000E+00 4.496E-04
 
     Magnetic moment per site:
     atom:    1    charge:   12.8355    magn:    1.5417    constr:    0.0000
     atom:    2    charge:   12.8355    magn:    1.5417    constr:    0.0000
     atom:    3    charge:   12.8355    magn:    1.5417    constr:    0.0000
     atom:    4    charge:   12.7729    magn:    2.6694    constr:    0.0000
     atom:    5    charge:    4.0947    magn:   -0.0063    constr:    0.0000

     total cpu time spent up to now is      108.8 secs

     total energy              =   -1345.15799704 Ry
     Harris-Foulkes estimate   =   -1345.15808358 Ry
     estimated scf accuracy    <       0.00088935 Ry

     total magnetization       =     7.78 Bohr mag/cell
     absolute magnetization    =     8.12 Bohr mag/cell

     iteration # 19     ecut=    80.00 Ry     beta=0.70
     Davidson diagonalization with overlap
     ethr =  9.43E-07,  avg # of iterations =  1.9

     negative rho (up, down):  0.000E+00 4.449E-04
 
     Magnetic moment per site:
     atom:    1    charge:   12.8355    magn:    1.5388    constr:    0.0000
     atom:    2    charge:   12.8355    magn:    1.5388    constr:    0.0000
     atom:    3    charge:   12.8355    magn:    1.5388    constr:    0.0000
     atom:    4    charge:   12.7729    magn:    2.6683    constr:    0.0000
     atom:    5    charge:    4.0950    magn:   -0.0055    constr:    0.0000

     total cpu time spent up to now is      114.1 secs

     total energy              =   -1345.15811379 Ry
     Harris-Foulkes estimate   =   -1345.15809744 Ry
     estimated scf accuracy    <       0.00018105 Ry

     total magnetization       =     7.83 Bohr mag/cell
     absolute magnetization    =     8.17 Bohr mag/cell

     iteration # 20     ecut=    80.00 Ry     beta=0.70
     Davidson diagonalization with overlap
     ethr =  2.62E-07,  avg # of iterations =  1.0

     negative rho (up, down):  0.000E+00 3.877E-04
 
     Magnetic moment per site:
     atom:    1    charge:   12.8358    magn:    1.4859    constr:    0.0000
     atom:    2    charge:   12.8358    magn:    1.4859    constr:    0.0000
     atom:    3    charge:   12.8358    magn:    1.4859    constr:    0.0000
     atom:    4    charge:   12.7725    magn:    2.6500    constr:    0.0000
     atom:    5    charge:    4.0949    magn:   -0.0026    constr:    0.0000

     total cpu time spent up to now is      119.0 secs

     total energy              =   -1345.15798971 Ry
     Harris-Foulkes estimate   =   -1345.15811628 Ry
     estimated scf accuracy    <       0.00012874 Ry

     total magnetization       =     7.82 Bohr mag/cell
     absolute magnetization    =     8.17 Bohr mag/cell

     iteration # 21     ecut=    80.00 Ry     beta=0.70
     Davidson diagonalization with overlap
     ethr =  1.87E-07,  avg # of iterations =  2.8

     negative rho (up, down):  0.000E+00 3.878E-04
 
     Magnetic moment per site:
     atom:    1    charge:   12.8360    magn:    1.4849    constr:    0.0000
     atom:    2    charge:   12.8360    magn:    1.4849    constr:    0.0000
     atom:    3    charge:   12.8360    magn:    1.4849    constr:    0.0000
     atom:    4    charge:   12.7727    magn:    2.6529    constr:    0.0000
     atom:    5    charge:    4.0945    magn:   -0.0041    constr:    0.0000

     total cpu time spent up to now is      125.3 secs

     total energy              =   -1345.15819952 Ry
     Harris-Foulkes estimate   =   -1345.15819911 Ry
     estimated scf accuracy    <       0.00001129 Ry

     total magnetization       =     7.68 Bohr mag/cell
     absolute magnetization    =     8.03 Bohr mag/cell

     iteration # 22     ecut=    80.00 Ry     beta=0.70
     Davidson diagonalization with overlap
     ethr =  1.64E-08,  avg # of iterations =  2.0

     negative rho (up, down):  0.000E+00 3.895E-04
 
     Magnetic moment per site:
     atom:    1    charge:   12.8362    magn:    1.4858    constr:    0.0000
     atom:    2    charge:   12.8362    magn:    1.4858    constr:    0.0000
     atom:    3    charge:   12.8362    magn:    1.4858    constr:    0.0000
     atom:    4    charge:   12.7728    magn:    2.6529    constr:    0.0000
     atom:    5    charge:    4.0945    magn:   -0.0041    constr:    0.0000

     total cpu time spent up to now is      130.8 secs

     total energy              =   -1345.15820131 Ry
     Harris-Foulkes estimate   =   -1345.15820132 Ry
     estimated scf accuracy    <       0.00000296 Ry

     total magnetization       =     7.68 Bohr mag/cell
     absolute magnetization    =     8.03 Bohr mag/cell

     iteration # 23     ecut=    80.00 Ry     beta=0.70
     Davidson diagonalization with overlap
     ethr =  4.29E-09,  avg # of iterations =  1.9

     negative rho (up, down):  0.000E+00 3.904E-04
 
     Magnetic moment per site:
     atom:    1    charge:   12.8362    magn:    1.4867    constr:    0.0000
     atom:    2    charge:   12.8362    magn:    1.4867    constr:    0.0000
     atom:    3    charge:   12.8362    magn:    1.4867    constr:    0.0000
     atom:    4    charge:   12.7729    magn:    2.6536    constr:    0.0000
     atom:    5    charge:    4.0944    magn:   -0.0040    constr:    0.0000

     total cpu time spent up to now is      136.3 secs

     total energy              =   -1345.15820172 Ry
     Harris-Foulkes estimate   =   -1345.15820169 Ry
     estimated scf accuracy    <       0.00000046 Ry

     total magnetization       =     7.68 Bohr mag/cell
     absolute magnetization    =     8.03 Bohr mag/cell

     iteration # 24     ecut=    80.00 Ry     beta=0.70
     Davidson diagonalization with overlap
     ethr =  6.60E-10,  avg # of iterations =  2.9

     negative rho (up, down):  0.000E+00 3.913E-04
 
     Magnetic moment per site:
     atom:    1    charge:   12.8362    magn:    1.4880    constr:    0.0000
     atom:    2    charge:   12.8362    magn:    1.4880    constr:    0.0000
     atom:    3    charge:   12.8362    magn:    1.4880    constr:    0.0000
     atom:    4    charge:   12.7728    magn:    2.6535    constr:    0.0000
     atom:    5    charge:    4.0945    magn:   -0.0037    constr:    0.0000

     total cpu time spent up to now is      142.2 secs

     total energy              =   -1345.15820186 Ry
     Harris-Foulkes estimate   =   -1345.15820195 Ry
     estimated scf accuracy    <       0.00000018 Ry

     total magnetization       =     7.68 Bohr mag/cell
     absolute magnetization    =     8.03 Bohr mag/cell

     iteration # 25     ecut=    80.00 Ry     beta=0.70
     Davidson diagonalization with overlap
     ethr =  2.56E-10,  avg # of iterations =  2.1

     negative rho (up, down):  0.000E+00 3.912E-04
 
     Magnetic moment per site:
     atom:    1    charge:   12.8362    magn:    1.4879    constr:    0.0000
     atom:    2    charge:   12.8362    magn:    1.4879    constr:    0.0000
     atom:    3    charge:   12.8362    magn:    1.4879    constr:    0.0000
     atom:    4    charge:   12.7729    magn:    2.6535    constr:    0.0000
     atom:    5    charge:    4.0945    magn:   -0.0037    constr:    0.0000

     total cpu time spent up to now is      147.3 secs

     total energy              =   -1345.15820198 Ry
     Harris-Foulkes estimate   =   -1345.15820199 Ry
     estimated scf accuracy    <       0.00000001 Ry

     total magnetization       =     7.68 Bohr mag/cell
     absolute magnetization    =     8.03 Bohr mag/cell

     iteration # 26     ecut=    80.00 Ry     beta=0.70
     Davidson diagonalization with overlap
     ethr =  1.83E-11,  avg # of iterations =  2.5

     negative rho (up, down):  0.000E+00 3.912E-04
 
     Magnetic moment per site:
     atom:    1    charge:   12.8362    magn:    1.4879    constr:    0.0000
     atom:    2    charge:   12.8362    magn:    1.4879    constr:    0.0000
     atom:    3    charge:   12.8362    magn:    1.4879    constr:    0.0000
     atom:    4    charge:   12.7728    magn:    2.6535    constr:    0.0000
     atom:    5    charge:    4.0945    magn:   -0.0037    constr:    0.0000

     total cpu time spent up to now is      152.7 secs

     End of self-consistent calculation

 ------ SPIN UP ------------


          k = 0.0000 0.0000 0.0000 (  3959 PWs)   bands (ev):

   -69.9403 -69.2636 -69.2093 -69.2093 -35.9995 -35.9995 -35.9995 -35.6182
   -35.6182 -35.6182 -35.1608 -35.1608 -35.1608 -35.1539 -35.1539 -35.1539
     0.3464  11.4288  13.3310  13.3310  13.3310  13.8416  13.8416  14.1071
    14.1071  14.1071  16.0951  16.0951  16.0951  17.2006  17.2006  17.8480
    17.8480  18.4000  18.4000  18.4000  18.4675  18.4675  18.4675  18.4695
    21.8886  23.7558

          k = 0.0000 0.0000 0.1111 (  3995 PWs)   bands (ev):

   -69.9402 -69.2622 -69.2108 -69.2093 -35.9987 -35.9987 -35.9983 -35.6172
   -35.6172 -35.6162 -35.1619 -35.1619 -35.1613 -35.1589 -35.1552 -35.1552
     0.4161  11.4861  12.9279  13.1112  13.1112  13.9209  13.9325  14.1595
    14.3459  14.3459  16.0305  16.1487  16.1487  17.2235  17.2595  17.8162
    17.8716  18.3152  18.3152  18.3996  18.3996  18.3999  18.4081  18.4662
    21.9645  23.2369

          k = 0.0000 0.0000 0.2222 (  4028 PWs)   bands (ev):

   -69.9400 -69.2583 -69.2150 -69.2093 -35.9962 -35.9962 -35.9951 -35.6142
   -35.6142 -35.6104 -35.1719 -35.1649 -35.1649 -35.1620 -35.1582 -35.1582
     0.6011  11.3384  12.5051  12.7681  12.7681  14.0827  14.1373  14.3111
    14.7526  14.7526  15.8476  16.2744  16.2744  17.1966  17.2877  17.7259
    17.7698  17.9554  17.9554  18.2409  18.4001  18.4028  18.4028  18.4633
    22.1782  22.5175

          k = 0.0000 0.0000 0.3333 (  4048 PWs)   bands (ev):

   -69.9397 -69.2527 -69.2209 -69.2093 -35.9934 -35.9934 -35.9912 -35.6108
   -35.6108 -35.6029 -35.1870 -35.1686 -35.1686 -35.1628 -35.1612 -35.1612
     0.8289  10.6704  12.4981  12.4981  12.8467  14.1989  14.4191  14.5444
    15.1439  15.1439  15.5786  16.3668  16.3668  16.9858  17.3224  17.3628
    17.5827  17.5827  17.6145  18.0188  18.4004  18.4159  18.4159  18.4604
    22.0450  22.5720

          k = 0.0000 0.0000 0.4444 (  4068 PWs)   bands (ev):

   -69.9395 -69.2473 -69.2265 -69.2093 -35.9917 -35.9917 -35.9887 -35.6086
   -35.6086 -35.5976 -35.1971 -35.1713 -35.1713 -35.1635 -35.1630 -35.1630
     0.9896  10.1837  12.3538  12.3538  13.4015  14.1256  14.6333  14.8100
    15.2897  15.4360  15.4360  16.3354  16.3354  16.7342  16.9452  17.3470
    17.3754  17.3754  17.6420  17.8061  18.4004  18.4311  18.4311  18.4584
    21.9116  22.7897

          k = 0.0000 0.1111 0.1111 (  4006 PWs)   bands (ev):

   -69.9401 -69.2609 -69.2115 -69.2100 -35.9990 -35.9977 -35.9961 -35.6284
   -35.6160 -35.6018 -35.1722 -35.1630 -35.1625 -35.1592 -35.1565 -35.1502
     0.4858  11.5400  12.6993  12.8578  12.9546  13.9981  14.0059  14.2144
    14.4889  14.5153  16.0065  16.1656  16.1951  17.2511  17.2750  17.7274
    17.7846  18.2274  18.2652  18.3194  18.3259  18.4114  18.4804  18.5438
    22.0251  23.4387

          k = 0.0000 0.1111 0.2222 (  4029 PWs)   bands (ev):

   -69.9399 -69.2571 -69.2153 -69.2103 -35.9976 -35.9953 -35.9930 -35.6360
   -35.6128 -35.5860 -35.1877 -35.1676 -35.1657 -35.1603 -35.1597 -35.1461
     0.6711  11.3596  12.2613  12.6639  12.6774  14.1588  14.2086  14.3644
    14.8159  14.8606  15.8441  16.2837  16.2912  17.1619  17.3251  17.4397
    17.5858  17.9126  18.1412  18.1998  18.2433  18.3852  18.5596  18.6836
    22.2034  22.6709

          k = 0.0000 0.1111 0.3333 (  4036 PWs)   bands (ev):

   -69.9396 -69.2515 -69.2210 -69.2103 -35.9948 -35.9926 -35.9903 -35.6397
   -35.6092 -35.5720 -35.2030 -35.1726 -35.1694 -35.1628 -35.1623 -35.1439
     0.8994  10.6622  12.1392  12.4169  12.9467  14.2840  14.4879  14.5933
    15.1766  15.2160  15.5827  16.2937  16.3957  16.9316  17.0989  17.2673
    17.4925  17.5588  17.8580  18.0749  18.1811  18.3788  18.6313  18.6772
    22.2626  22.4509

          k = 0.0000 0.1111 0.4444 (  4054 PWs)   bands (ev):

   -69.9394 -69.2462 -69.2265 -69.2104 -35.9923 -35.9908 -35.9894 -35.6411
   -35.6068 -35.5637 -35.2128 -35.1758 -35.1720 -35.1646 -35.1638 -35.1431
     1.0607  10.1722  12.0385  12.2814  13.4702  14.2203  14.7029  14.8597
    15.2929  15.4599  15.4827  16.1396  16.3933  16.6651  16.8655  17.2572
    17.3568  17.4670  17.7097  17.9011  18.1448  18.3766  18.6553  18.6772
    22.1438  22.6127

          k = 0.0000 0.2222 0.2222 (  4040 PWs)   bands (ev):

   -69.9397 -69.2534 -69.2170 -69.2124 -35.9979 -35.9932 -35.9908 -35.6546
   -35.6093 -35.5605 -35.2090 -35.1702 -35.1681 -35.1634 -35.1621 -35.1325
     0.8573  11.2955  11.5684  12.4417  12.7905  14.3592  14.3855  14.5070
    15.0159  15.1119  15.7618  16.2773  16.3653  17.0242  17.0294  17.3121
    17.4606  17.7439  18.0360  18.0898  18.2591  18.3362  18.7099  18.9956
    22.1167  22.9993

          k = 0.0000 0.2222 0.3333 (  4053 PWs)   bands (ev):

   -69.9394 -69.2482 -69.2215 -69.2133 -35.9965 -35.9907 -35.9902 -35.6670
   -35.6053 -35.5399 -35.2272 -35.1730 -35.1714 -35.1670 -35.1644 -35.1236
     1.0872  10.6293  11.3686  12.2341  13.1811  14.5177  14.6630  14.7182
    15.2804  15.3920  15.5600  16.0681  16.4982  16.7596  16.8099  17.1041
    17.4769  17.6375  17.8046  17.9593  18.1982  18.3533  18.8372  19.0306
    21.9464  22.8242

          k = 0.0000 0.2222 0.4444 (  4032 PWs)   bands (ev):

   -69.9393 -69.2430 -69.2266 -69.2135 -35.9941 -35.9911 -35.9890 -35.6730
   -35.6025 -35.5280 -35.2375 -35.1748 -35.1738 -35.1689 -35.1659 -35.1190
     1.2499  10.1378  11.3041  12.1154  13.6807  14.4703  14.8928  14.9697
    15.3013  15.4974  15.6010  15.8247  16.5538  16.5559  16.6131  17.0988
    17.2995  17.5304  17.8766  17.8815  18.1792  18.2131  18.9140  18.9645
    21.9136  22.7465

          k = 0.0000 0.3333 0.3333 (  4052 PWs)   bands (ev):

   -69.9392 -69.2432 -69.2232 -69.2167 -35.9969 -35.9914 -35.9884 -35.6865
   -35.6007 -35.5145 -35.2467 -35.1739 -35.1730 -35.1715 -35.1669 -35.1087
     1.3197  10.5592  10.5969  12.0546  13.5750  14.8397  14.8452  14.8900
    15.4155  15.4621  15.5964  15.7425  16.5566  16.6503  16.6603  16.9010
    17.3298  17.6109  17.7597  17.9071  18.0449  18.5493  19.0057  19.1759
    21.2670  23.3562

          k = 0.0000 0.3333 0.4444 (  4053 PWs)   bands (ev):

   -69.9391 -69.2381 -69.2267 -69.2183 -35.9959 -35.9936 -35.9869 -35.6966
   -35.5976 -35.5003 -35.2577 -35.1761 -35.1740 -35.1729 -35.1687 -35.1009
     1.4846  10.0910  10.5361  11.9492  14.0232  14.8004  15.0867  15.1300
    15.2971  15.5116  15.5602  15.7477  16.4034  16.4760  16.7802  16.8340
    17.2051  17.4015  17.6226  17.9755  18.1751  18.5824  19.1043  19.1312
    20.9090  23.4494

          k = 0.0000 0.4444 0.4444 (  4046 PWs)   bands (ev):

   -69.9390 -69.2326 -69.2272 -69.2234 -35.9965 -35.9956 -35.9855 -35.7089
   -35.5944 -35.4850 -35.2687 -35.1775 -35.1773 -35.1715 -35.1706 -35.0912
     1.6515  10.0568  10.0573  11.8506  14.3689  15.0266  15.1877  15.2550
    15.2607  15.4105  15.5768  15.8602  16.3158  16.3976  16.5794  16.9893
    17.1159  17.2365  17.4115  17.8592  18.3852  18.9457  19.1765  19.2144
    20.1316  23.9989

          k = 0.1111 0.1111 0.1111 (  4007 PWs)   bands (ev):

   -69.9400 -69.2596 -69.2114 -69.2114 -35.9983 -35.9983 -35.9939 -35.6404
   -35.6007 -35.6007 -35.1753 -35.1715 -35.1715 -35.1525 -35.1505 -35.1505
     0.5557  11.5900  12.5645  12.5645  12.8366  14.0740  14.0740  14.3917
    14.3917  14.7360  15.9909  16.2048  16.2048  17.2689  17.2689  17.6657
    17.6657  17.9926  18.1248  18.3456  18.3456  18.4214  18.6423  18.6423
    22.0753  23.5633

          k = 0.1111 0.1111 0.2222 (  4032 PWs)   bands (ev):

   -69.9398 -69.2558 -69.2154 -69.2114 -35.9974 -35.9966 -35.9908 -35.6528
   -35.5979 -35.5804 -35.1920 -35.1820 -35.1733 -35.1528 -35.1477 -35.1455
     0.7413  11.3717  12.1439  12.2987  12.7598  14.2342  14.2795  14.4645
    14.7639  15.0149  15.8464  16.2871  16.2979  17.1784  17.2956  17.3853
    17.4101  17.7649  17.9285  18.2190  18.3467  18.3579  18.8032  18.8340
    22.2215  22.8356

          k = 0.1111 0.1111 0.3333 (  4029 PWs)   bands (ev):

   -69.9395 -69.2504 -69.2211 -69.2114 -35.9947 -35.9945 -35.9888 -35.6602
   -35.5945 -35.5630 -35.2083 -35.1906 -35.1743 -35.1545 -35.1485 -35.1414
     0.9702  10.6470  12.0649  12.0777  13.0391  14.3652  14.5568  14.6669
    15.1727  15.2819  15.5931  16.2802  16.3466  16.9191  17.0723  17.1133
    17.4330  17.6079  17.7059  18.0912  18.2517  18.3355  18.6825  18.9938
    22.4195  22.4443

          k = 0.1111 0.1111 0.4444 (  4041 PWs)   bands (ev):

   -69.9394 -69.2451 -69.2265 -69.2114 -35.9932 -35.9914 -35.9890 -35.6636
   -35.5922 -35.5528 -35.2183 -35.1956 -35.1750 -35.1557 -35.1500 -35.1396
     1.1320  10.1551  11.9349  12.0086  13.5374  14.3085  14.7730  14.9250
    15.3031  15.4563  15.5320  16.0778  16.2804  16.6282  16.9692  17.0989
    17.3356  17.5006  17.7109  17.9318  18.1858  18.3252  18.5254  19.0853
    22.3377  22.5628

          k = 0.1111 0.2222 0.2222 (  4039 PWs)   bands (ev):

   -69.9396 -69.2523 -69.2169 -69.2136 -35.9979 -35.9957 -35.9884 -35.6730
   -35.5887 -35.5596 -35.2101 -35.1871 -35.1836 -35.1483 -35.1475 -35.1328
     0.9280  11.2978  11.4899  12.0707  12.8965  14.4298  14.4584  14.6330
    14.9408  15.2103  15.7724  16.2720  16.3426  17.0334  17.0933  17.2161
    17.3977  17.5457  17.7238  18.2494  18.2510  18.3231  19.0789  19.1118
    22.1903  23.1072

          k = 0.1111 0.2222 0.3333 (  4047 PWs)   bands (ev):

   -69.9394 -69.2472 -69.2216 -69.2143 -35.9969 -35.9943 -35.9877 -35.6872
   -35.5843 -35.5383 -35.2275 -35.1957 -35.1857 -35.1493 -35.1461 -35.1236
     1.1588  10.5990  11.3121  11.9156  13.2665  14.5790  14.7299  14.8353
    15.2655  15.3778  15.5858  16.1042  16.3743  16.7672  16.9141  17.0336
    17.4436  17.4798  17.6163  18.1534  18.1990  18.2557  18.9979  19.3350
    22.0577  22.8869

          k = 0.1111 0.2222 0.4444 (  4043 PWs)   bands (ev):

   -69.9392 -69.2421 -69.2266 -69.2144 -35.9952 -35.9930 -35.9885 -35.6943
   -35.5817 -35.5258 -35.2375 -35.2013 -35.1862 -35.1501 -35.1462 -35.1190
     1.3223  10.1082  11.2421  11.8226  13.7367  14.5304  14.9615  15.0728
    15.3051  15.4801  15.6055  15.8667  16.3011  16.5455  16.8789  16.9695
    17.3041  17.4497  17.7979  18.0517  18.1023  18.2346  18.7443  19.4766
    22.0160  22.8364

          k = 0.1111 0.3333 0.3333 (  4039 PWs)   bands (ev):

   -69.9392 -69.2424 -69.2232 -69.2175 -35.9976 -35.9943 -35.9877 -35.7074
   -35.5787 -35.5139 -35.2457 -35.1972 -35.1944 -35.1475 -35.1460 -35.1087
     1.3925  10.5252  10.5402  11.7577  13.6369  14.8241  14.9057  15.0702
    15.3312  15.4738  15.5712  15.9067  16.3686  16.6382  16.7547  16.9607
    17.3294  17.3370  17.7970  18.0131  18.1101  18.3410  19.2248  19.4692
    21.3626  23.2571

          k = 0.1111 0.3333 0.4444 (  4060 PWs)   bands (ev):

   -69.9391 -69.2375 -69.2267 -69.2189 -35.9970 -35.9953 -35.9881 -35.7180
   -35.5758 -35.5000 -35.2560 -35.2016 -35.1956 -35.1474 -35.1461 -35.1010
     1.5585  10.0497  10.4843  11.6632  14.0418  14.7963  15.0927  15.2881
    15.2961  15.5111  15.5637  15.9188  16.2915  16.4480  16.7302  16.9228
    17.2045  17.3125  17.8581  17.9778  18.0316  18.4903  19.0183  19.6605
    20.9549  23.3831

          k = 0.1111 0.4444 0.4444 (  4043 PWs)   bands (ev):

   -69.9390 -69.2323 -69.2272 -69.2237 -35.9977 -35.9970 -35.9878 -35.7307
   -35.5725 -35.4849 -35.2663 -35.2014 -35.2010 -35.1463 -35.1460 -35.0912
     1.7267  10.0085  10.0104  11.5684  14.3239  14.9833  15.0468  15.2064
    15.5473  15.5541  15.6312  16.0547  16.2578  16.3638  16.5069  16.9258
    17.1762  17.2236  17.6763  17.9358  18.0869  18.8793  19.1717  19.7013
    20.1208  23.7370

          k = 0.2222 0.2222 0.2222 (  4031 PWs)   bands (ev):

   -69.9394 -69.2491 -69.2169 -69.2169 -35.9977 -35.9977 -35.9867 -35.6986
   -35.5572 -35.5572 -35.2177 -35.2002 -35.2002 -35.1352 -35.1352 -35.1312
     1.1165  11.2717  11.3121  11.3121  13.1143  14.6243  14.6243  14.9437
    14.9437  15.3053  15.7337  16.2817  16.2817  16.9709  16.9709  17.2842
    17.2842  17.2938  17.4289  18.2298  18.2298  18.3831  19.4160  19.4160
    22.2844  23.0629

          k = 0.2222 0.2222 0.3333 (  4054 PWs)   bands (ev):

   -69.9393 -69.2444 -69.2218 -69.2169 -35.9978 -35.9977 -35.9873 -35.7178
   -35.5546 -35.5313 -35.2318 -35.2132 -35.2029 -35.1353 -35.1275 -35.1217
     1.3498  10.5178  11.1362  11.2364  13.4797  14.7355  14.8938  15.1022
    15.2936  15.2967  15.6707  16.1496  16.2361  16.7261  16.7879  17.1834
    17.1863  17.3791  17.5221  18.1628  18.2210  18.3176  19.2430  19.7652
    22.2494  22.6944

          k = 0.2222 0.2222 0.4444 (  4045 PWs)   bands (ev):

   -69.9391 -69.2396 -69.2266 -69.2168 -35.9977 -35.9960 -35.9894 -35.7278
   -35.5527 -35.5166 -35.2408 -35.2202 -35.2032 -35.1358 -35.1241 -35.1163
     1.5156  10.0334  11.0326  11.1945  13.8856  14.6660  15.1492  15.1496
    15.4047  15.4945  15.6133  15.9883  16.1857  16.4995  16.7733  17.0081
    17.1486  17.5617  17.7247  18.0980  18.1979  18.2434  18.8122  20.0155
    22.2609  22.3765

          k = 0.2222 0.3333 0.3333 (  4042 PWs)   bands (ev):

   -69.9391 -69.2402 -69.2231 -69.2197 -35.9995 -35.9986 -35.9891 -35.7417
   -35.5420 -35.5127 -35.2436 -35.2183 -35.2150 -35.1264 -35.1250 -35.1088
     1.5872  10.4057  10.4381  11.0631  13.7843  14.8946  14.9991  15.1552
    15.4053  15.4590  15.8030  16.1043  16.2150  16.6158  16.6361  16.9635
    17.3058  17.3508  17.6477  18.1543  18.2335  18.2833  19.4039  19.9196
    21.6322  22.6900

          k = 0.2222 0.3333 0.4444 (  4037 PWs)   bands (ev):

   -69.9390 -69.2358 -69.2267 -69.2205 -35.9998 -35.9987 -35.9916 -35.7544
   -35.5387 -35.4985 -35.2520 -35.2242 -35.2163 -35.1260 -35.1210 -35.1010
     1.7564   9.9489  10.3588  10.9837  14.0732  14.8064  15.0289  15.2258
    15.4921  15.7163  15.8765  16.1634  16.1896  16.4252  16.6220  16.8054
    17.2879  17.5139  17.7770  18.1077  18.1709  18.3894  19.0279  20.2495
    21.0549  22.6447

          k = 0.2222 0.4444 0.4444 (  4052 PWs)   bands (ev):

   -69.9390 -69.2315 -69.2272 -69.2245 -36.0008 -36.0005 -35.9937 -35.7689
   -35.5343 -35.4849 -35.2603 -35.2240 -35.2234 -35.1212 -35.1209 -35.0914
     1.9286   9.8908   9.8982  10.8933  14.2104  14.8995  14.9513  15.0910
    15.6746  16.0030  16.1148  16.2040  16.2653  16.4007  16.5132  16.6612
    17.4085  17.4434  17.8228  17.9843  18.1024  18.7657  19.1482  19.9418
    20.4407  22.9028

          k = 0.3333 0.3333 0.3333 (  4032 PWs)   bands (ev):

   -69.9390 -69.2369 -69.2231 -69.2231 -36.0015 -36.0015 -35.9927 -35.7694
   -35.5113 -35.5113 -35.2447 -35.2302 -35.2302 -35.1113 -35.1113 -35.1068
     1.8302  10.2658  10.2658  10.4029  13.9581  14.9434  14.9966  14.9966
    15.6712  15.6712  16.1365  16.2198  16.2198  16.5770  16.5770  16.7385
    17.4754  17.5602  17.5602  18.2051  18.2051  18.3435  19.7550  19.7550
    21.9459  21.9459

          k = 0.3333 0.3333 0.4444 (  4056 PWs)   bands (ev):

   -69.9390 -69.2333 -69.2268 -69.2231 -36.0029 -36.0022 -35.9965 -35.7845
   -35.5104 -35.4945 -35.2498 -35.2383 -35.2317 -35.1102 -35.1036 -35.0997
     2.0042   9.8397  10.1806  10.3025  14.0878  14.8146  14.9342  15.0679
    15.7119  15.9706  16.2203  16.2989  16.3771  16.5458  16.5868  16.7078
    17.4836  17.6870  17.7226  18.2235  18.2890  18.3206  19.0874  20.2702
    21.0602  21.9470

          k = 0.3333 0.4444 0.4444 (  4052 PWs)   bands (ev):

   -69.9389 -69.2303 -69.2271 -69.2256 -36.0042 -36.0041 -36.0005 -35.8009
   -35.5022 -35.4847 -35.2537 -35.2402 -35.2395 -35.1021 -35.1017 -35.0914
     2.1825   9.7662   9.7784  10.1667  14.0881  14.8254  14.8797  14.9452
    15.8672  16.0655  16.2530  16.2649  16.4483  16.8107  16.8167  16.9898
    17.6326  17.6621  17.7510  18.2091  18.2613  18.5498  19.0752  19.6193
    20.9380  21.9315

          k = 0.4444 0.4444 0.4444 (  4044 PWs)   bands (ev):

   -69.9389 -69.2288 -69.2271 -69.2271 -36.0063 -36.0063 -36.0051 -35.8184
   -35.4845 -35.4845 -35.2501 -35.2478 -35.2478 -35.0918 -35.0918 -35.0910
     2.3658   9.6893   9.6893   9.7176  14.0135  14.7947  14.8354  14.8354
    16.0140  16.0140  16.2649  16.2649  16.3312  17.4472  17.4472  17.4757
    17.7456  17.7456  17.9051  18.3156  18.3156  18.3185  18.9405  18.9405
    21.2453  21.2453

 ------ SPIN DOWN ----------


          k = 0.0000 0.0000 0.0000 (  3959 PWs)   bands (ev):

   -67.3654 -67.3048 -67.3048 -66.5352 -33.9867 -33.9867 -33.9867 -33.2309
   -33.2309 -33.2309 -33.1924 -33.1924 -33.1924 -32.6391 -32.6391 -32.6391
     0.4474  11.7298  13.3955  13.3955  13.3955  15.2128  15.2128  15.5357
    15.5357  15.5357  18.0439  18.0439  18.0439  18.7076  18.7076  20.2829
    20.2829  20.2829  20.4099  20.4099  20.5107  20.8721  20.8721  20.8721
    23.0663  23.9627

          k = 0.0000 0.0000 0.1111 (  3995 PWs)   bands (ev):

   -67.3638 -67.3064 -67.3048 -66.5354 -33.9856 -33.9856 -33.9852 -33.2315
   -33.2300 -33.2300 -33.1936 -33.1936 -33.1929 -32.6422 -32.6404 -32.6404
     0.5163  11.7606  13.0953  13.2820  13.2820  15.2726  15.3119  15.5929
    15.6887  15.6887  17.9661  18.1059  18.1059  18.7138  18.8040  20.2369
    20.2369  20.2829  20.3492  20.3659  20.4475  20.6214  20.6214  20.8719
    23.1073  23.6094

          k = 0.0000 0.0000 0.2222 (  4028 PWs)   bands (ev):

   -67.3591 -67.3110 -67.3048 -66.5357 -33.9826 -33.9826 -33.9810 -33.2328
   -33.2275 -33.2275 -33.1966 -33.1966 -33.1938 -32.6498 -32.6436 -32.6436
     0.6991  11.5224  12.8564  13.0428  13.0428  15.3373  15.5875  15.7566
    16.0378  16.0378  17.7506  18.2792  18.2792  18.7232  18.8160  19.9900
    19.9900  20.1257  20.1440  20.2209  20.2209  20.2832  20.3777  20.8719
    23.0998  23.2988

          k = 0.0000 0.0000 0.3333 (  4048 PWs)   bands (ev):

   -67.3523 -67.3176 -67.3048 -66.5360 -33.9791 -33.9791 -33.9759 -33.2341
   -33.2248 -33.2248 -33.1998 -33.1998 -33.1948 -32.6583 -32.6473 -32.6473
     0.9234  10.8639  12.8218  12.8218  13.2737  15.2210  15.9612  15.9976
    16.4102  16.4102  17.4511  18.5199  18.5199  18.5909  18.7051  19.4698
    19.4698  19.7701  19.8276  20.0536  20.0536  20.2837  20.3227  20.8720
    22.9375  23.5458

          k = 0.0000 0.0000 0.4444 (  4068 PWs)   bands (ev):

   -67.3458 -67.3240 -67.3049 -66.5362 -33.9769 -33.9769 -33.9726 -33.2347
   -33.2232 -33.2232 -33.2018 -33.2018 -33.1956 -32.6639 -32.6497 -32.6497
     1.0812  10.3978  12.6963  12.6963  13.9367  14.7965  16.2291  16.2630
    16.6623  16.6623  17.1818  18.4172  18.6465  18.7651  18.7651  19.0543
    19.0543  19.4994  19.6049  19.9444  19.9444  20.2837  20.2866  20.8719
    22.9035  23.7495

          k = 0.0000 0.1111 0.1111 (  4006 PWs)   bands (ev):

   -67.3622 -67.3072 -67.3057 -66.5355 -33.9985 -33.9845 -33.9697 -33.2356
   -33.2290 -33.2281 -33.1983 -33.1949 -33.1874 -32.6461 -32.6417 -32.6401
     0.5853  11.7927  12.8631  13.1418  13.1810  15.3486  15.3831  15.6587
    15.8166  15.8175  17.9295  18.1289  18.1602  18.7548  18.7992  20.1529
    20.1894  20.2149  20.2583  20.3584  20.4312  20.5246  20.5322  20.7759
    23.1422  23.8600

          k = 0.0000 0.1111 0.2222 (  4029 PWs)   bands (ev):

   -67.3576 -67.3113 -67.3060 -66.5357 -34.0079 -33.9814 -33.9536 -33.2429
   -33.2264 -33.2261 -33.2017 -33.1977 -33.1822 -32.6526 -32.6449 -32.6423
     0.7681  11.5475  12.5138  12.9619  13.0800  15.4235  15.6404  15.8256
    16.1211  16.1306  17.7371  18.2849  18.2992  18.6970  18.7320  19.8214
    19.9581  19.9627  20.0884  20.2037  20.3625  20.3787  20.4830  20.7415
    23.2090  23.4034

          k = 0.0000 0.1111 0.3333 (  4036 PWs)   bands (ev):

   -67.3509 -67.3177 -67.3060 -66.5360 -34.0135 -33.9779 -33.9401 -33.2500
   -33.2238 -33.2235 -33.2039 -33.2009 -33.1788 -32.6586 -32.6485 -32.6462
     0.9928  10.8696  12.4351  12.7545  13.4051  15.3149  16.0075  16.0673
    16.4596  16.4699  17.4464  18.3463  18.4956  18.5295  18.6603  19.4851
    19.5017  19.7234  19.8951  19.9384  20.2492  20.3638  20.3855  20.7422
    23.1221  23.4652

          k = 0.0000 0.1111 0.4444 (  4054 PWs)   bands (ev):

   -67.3446 -67.3239 -67.3060 -66.5362 -34.0161 -33.9756 -33.9324 -33.2544
   -33.2220 -33.2218 -33.2052 -33.2028 -33.1776 -32.6621 -32.6509 -32.6491
     1.1510  10.3992  12.3640  12.6351  14.0118  14.9077  16.3042  16.3061
    16.6896  16.7045  17.1824  18.1840  18.3324  18.7873  18.7932  19.0863
    19.3059  19.5836  19.6188  19.8239  20.1442  20.3072  20.3655  20.7436
    23.1051  23.6010

          k = 0.0000 0.2222 0.2222 (  4040 PWs)   bands (ev):

   -67.3534 -67.3131 -67.3083 -66.5359 -34.0293 -33.9785 -33.9270 -33.2591
   -33.2263 -33.2237 -33.2055 -33.2005 -33.1677 -32.6564 -32.6482 -32.6423
     0.9516  11.5005  11.8235  12.7787  13.2535  15.6168  15.7758  15.9992
    16.3316  16.3655  17.6328  18.2695  18.3717  18.5078  18.5808  19.6853
    19.7692  19.8193  19.9198  20.0945  20.4449  20.4484  20.5166  20.6859
    23.1211  23.9552

          k = 0.0000 0.2222 0.3333 (  4053 PWs)   bands (ev):

   -67.3472 -67.3181 -67.3092 -66.5361 -34.0443 -33.9751 -33.9060 -33.2728
   -33.2262 -33.2205 -33.2097 -33.2038 -33.1565 -32.6582 -32.6519 -32.6449
     1.1773  10.8732  11.6523  12.5978  13.6654  15.5715  16.0795  16.2399
    16.5943  16.6233  17.4071  17.9814  18.2674  18.5857  18.5905  19.5196
    19.5379  19.7134  19.7462  19.8928  20.4120  20.4124  20.4848  20.6822
    23.0132  23.7363

          k = 0.0000 0.2222 0.4444 (  4032 PWs)   bands (ev):

   -67.3411 -67.3237 -67.3094 -66.5362 -34.0519 -33.9728 -33.8942 -33.2803
   -33.2249 -33.2185 -33.2134 -33.2057 -33.1505 -32.6575 -32.6543 -32.6480
     1.3365  10.3975  11.6153  12.4912  14.2202  15.2019  16.3435  16.4899
    16.7649  16.8489  17.1777  17.7101  18.1361  18.6135  18.8679  19.1793
    19.3766  19.6230  19.6741  19.8156  20.3968  20.4172  20.4764  20.5156
    23.0507  23.6592

          k = 0.0000 0.3333 0.3333 (  4052 PWs)   bands (ev):

   -67.3416 -67.3197 -67.3129 -66.5363 -34.0667 -33.9718 -33.8797 -33.2907
   -33.2285 -33.2170 -33.2169 -33.2070 -33.1388 -32.6559 -32.6557 -32.6450
     1.4048  10.8333  10.8983  12.4384  14.0774  15.8700  16.0276  16.4623
    16.7912  16.8011  17.2948  17.6335  18.0651  18.5099  18.7350  19.3600
    19.5317  19.5357  19.7327  19.9267  20.1471  20.5087  20.5146  20.8586
    22.5371  24.3152

          k = 0.0000 0.3333 0.4444 (  4053 PWs)   bands (ev):

   -67.3358 -67.3237 -67.3146 -66.5364 -34.0785 -33.9696 -33.8653 -33.3005
   -33.2288 -33.2230 -33.2148 -33.2090 -33.1292 -32.6582 -32.6524 -32.6472
     1.5656  10.3867  10.8490  12.3429  14.5588  15.6051  16.2221  16.6911
    16.8609  17.0685  17.1544  17.3678  17.9815  18.4043  18.9763  19.2087
    19.2680  19.5042  19.5863  20.0362  20.0977  20.5267  20.5925  20.7773
    22.3325  24.3184

          k = 0.0000 0.4444 0.4444 (  4046 PWs)   bands (ev):

   -67.3298 -67.3240 -67.3200 -66.5364 -34.0925 -33.9675 -33.8495 -33.3112
   -33.2311 -33.2294 -33.2123 -33.2111 -33.1174 -32.6608 -32.6486 -32.6470
     1.7278  10.3732  10.3772  12.2532  14.9244  15.9640  15.9841  16.8474
    16.9129  16.9164  17.1184  17.5526  17.9137  18.1351  19.0480  19.0635
    19.3063  19.4737  19.5350  19.7168  20.2644  20.5394  20.7796  20.8786
    21.8710  24.8283

          k = 0.1111 0.1111 0.1111 (  4007 PWs)   bands (ev):

   -67.3606 -67.3072 -67.3072 -66.5356 -34.0117 -33.9686 -33.9686 -33.2366
   -33.2311 -33.2311 -33.1962 -33.1962 -33.1835 -32.6499 -32.6410 -32.6410
     0.6543  11.8254  12.7781  12.7781  13.1948  15.4368  15.4368  15.7999
    15.7999  15.9820  17.9015  18.1731  18.1731  18.7728  18.7728  20.0067
    20.1178  20.1435  20.1435  20.4016  20.4016  20.4030  20.6844  20.6844
    23.1837  24.0642

          k = 0.1111 0.1111 0.2222 (  4032 PWs)   bands (ev):

   -67.3562 -67.3115 -67.3072 -66.5358 -34.0262 -33.9659 -33.9479 -33.2442
   -33.2386 -33.2293 -33.1961 -33.1935 -33.1777 -32.6557 -32.6434 -32.6429
     0.8374  11.5675  12.4047  12.5871  13.2032  15.5088  15.6975  15.9233
    16.1337  16.2341  17.7305  18.2767  18.2918  18.6822  18.6823  19.6487
    19.7894  19.9261  19.9939  20.2998  20.4501  20.4725  20.5394  20.7285
    23.2604  23.5542

          k = 0.1111 0.1111 0.3333 (  4029 PWs)   bands (ev):

   -67.3497 -67.3177 -67.3071 -66.5360 -34.0359 -33.9626 -33.9307 -33.2524
   -33.2462 -33.2246 -33.1944 -33.1931 -33.1734 -32.6597 -32.6475 -32.6460
     1.0624  10.8693  12.3709  12.4000  13.5174  15.4076  16.0648  16.1467
    16.4763  16.5185  17.4491  18.2352  18.3254  18.6254  18.6605  19.2564
    19.5487  19.7170  19.8110  20.1311  20.3518  20.3775  20.5352  20.6683
    23.2561  23.4810

          k = 0.1111 0.1111 0.4444 (  4041 PWs)   bands (ev):

   -67.3434 -67.3239 -67.3071 -66.5362 -34.0407 -33.9604 -33.9211 -33.2572
   -33.2510 -33.2207 -33.1945 -33.1929 -33.1715 -32.6606 -32.6522 -32.6478
     1.2210  10.3955  12.2903  12.3304  14.0833  15.0159  16.3651  16.3840
    16.6170  16.8218  17.1860  17.9917  18.2153  18.7888  18.8110  19.0198
    19.2811  19.6477  19.6887  20.0061  20.1077  20.3081  20.5555  20.6472
    23.2697  23.5708

          k = 0.1111 0.2222 0.2222 (  4039 PWs)   bands (ev):

   -67.3521 -67.3131 -67.3095 -66.5360 -34.0493 -33.9569 -33.9263 -33.2596
   -33.2409 -33.2397 -33.1912 -33.1882 -33.1663 -32.6597 -32.6452 -32.6425
     1.0212  11.5154  11.7676  12.3880  13.3780  15.7062  15.8426  16.1128
    16.3332  16.3866  17.6435  18.2128  18.2648  18.5911  18.6037  19.4330
    19.5376  19.8348  19.8441  20.2447  20.4432  20.4855  20.7338  20.8298
    23.2322  23.9489

          k = 0.1111 0.2222 0.3333 (  4047 PWs)   bands (ev):

   -67.3461 -67.3181 -67.3102 -66.5362 -34.0662 -33.9530 -33.9046 -33.2742
   -33.2506 -33.2386 -33.1884 -33.1860 -33.1557 -32.6607 -32.6482 -32.6445
     1.2475  10.8588  11.6128  12.2620  13.7640  15.6596  16.1571  16.3320
    16.5288  16.6671  17.4281  17.9425  18.1466  18.6025  18.6628  19.2796
    19.3057  19.7084  19.8077  20.0906  20.3814  20.4344  20.7274  20.8377
    23.1230  23.7716

          k = 0.1111 0.2222 0.4444 (  4043 PWs)   bands (ev):

   -67.3401 -67.3237 -67.3103 -66.5363 -34.0750 -33.9508 -33.8921 -33.2822
   -33.2564 -33.2374 -33.1866 -33.1858 -33.1499 -32.6578 -32.6528 -32.6465
     1.4073  10.3815  11.5698  12.1845  14.2851  15.2994  16.4071  16.5702
    16.6610  16.9793  17.1974  17.6129  18.0556  18.6285  18.8428  19.0791
    19.1807  19.7044  19.8072  19.9552  20.3207  20.3842  20.4892  20.8734
    23.1488  23.7283

          k = 0.1111 0.3333 0.3333 (  4039 PWs)   bands (ev):

   -67.3407 -67.3197 -67.3137 -66.5363 -34.0893 -33.9485 -33.8793 -33.2930
   -33.2533 -33.2498 -33.1853 -33.1835 -33.1384 -32.6596 -32.6494 -32.6443
     1.4760  10.8137  10.8560  12.1307  14.1568  15.9523  16.0750  16.5555
    16.6830  16.8751  17.3285  17.6498  17.9859  18.5093  18.7426  19.1001
    19.3939  19.5440  19.9253  19.9260  20.2631  20.4123  20.8995  20.9793
    22.5975  24.2129

          k = 0.1111 0.3333 0.4444 (  4060 PWs)   bands (ev):

   -67.3352 -67.3237 -67.3152 -66.5364 -34.1017 -33.9463 -33.8650 -33.3032
   -33.2592 -33.2522 -33.1839 -33.1831 -33.1291 -32.6576 -32.6501 -32.6458
     1.6377  10.3582  10.8104  12.0497  14.6063  15.6803  16.2460  16.7787
    16.8643  17.0643  17.1791  17.4127  17.9300  18.4054  18.8169  18.9929
    19.3572  19.5863  19.7355  19.9977  20.1421  20.5103  20.7330  21.0743
    22.3535  24.2465

          k = 0.1111 0.4444 0.4444 (  4043 PWs)   bands (ev):

   -67.3295 -67.3240 -67.3203 -66.5364 -34.1160 -33.9440 -33.8494 -33.3144
   -33.2613 -33.2606 -33.1825 -33.1822 -33.1174 -32.6581 -32.6470 -32.6457
     1.8010  10.3387  10.3402  11.9672  14.9351  16.0014  16.0411  16.8492
    16.9407  17.0028  17.1581  17.6219  17.8828  18.1402  18.6882  19.0363
    19.4402  19.5814  19.6288  19.9213  19.9923  20.7281  20.8663  21.1324
    21.8248  24.5871

          k = 0.2222 0.2222 0.2222 (  4031 PWs)   bands (ev):

   -67.3483 -67.3130 -67.3130 -66.5361 -34.0779 -33.9242 -33.9242 -33.2619
   -33.2619 -33.2594 -33.1752 -33.1752 -33.1603 -32.6628 -32.6428 -32.6428
     1.2062  11.5069  11.6344  11.6344  13.6138  15.9675  15.9675  16.3829
    16.3980  16.3980  17.6152  18.0880  18.0880  18.6356  18.6356  19.2229
    19.2269  19.7423  19.7423  20.3390  20.4381  20.4381  21.0815  21.0815
    23.3994  23.8169

          k = 0.2222 0.2222 0.3333 (  4054 PWs)   bands (ev):

   -67.3429 -67.3183 -67.3130 -66.5362 -34.1001 -33.9220 -33.8977 -33.2791
   -33.2769 -33.2622 -33.1702 -33.1647 -33.1509 -32.6618 -32.6445 -32.6435
     1.4345  10.8157  11.4953  11.5415  14.0031  15.8935  16.3490  16.3819
    16.5676  16.7458  17.4607  17.8210  17.9664  18.6075  18.6870  18.9758
    19.2146  19.6824  19.7906  20.2392  20.3919  20.4177  20.9570  21.2868
    23.3390  23.6152

          k = 0.2222 0.2222 0.4444 (  4045 PWs)   bands (ev):

   -67.3374 -67.3236 -67.3130 -66.5363 -34.1118 -33.9204 -33.8829 -33.2884
   -33.2856 -33.2632 -33.1684 -33.1599 -33.1448 -32.6571 -32.6493 -32.6437
     1.5961  10.3387  11.4104  11.5232  14.4659  15.5487  16.4117  16.6978
    16.7887  17.0793  17.2528  17.4564  17.9261  18.6173  18.7221  18.7999
    19.2533  19.7845  19.9006  20.1218  20.3458  20.3580  20.5400  21.3933
    23.3763  23.4654

          k = 0.2222 0.3333 0.3333 (  4042 PWs)   bands (ev):

   -67.3383 -67.3197 -67.3160 -66.5363 -34.1269 -33.9096 -33.8784 -33.2989
   -33.2834 -33.2794 -33.1592 -33.1574 -33.1376 -32.6590 -32.6436 -32.6426
     1.6660  10.7531  10.7611  11.4209  14.3594  16.1270  16.1744  16.5879
    16.7971  16.9224  17.4242  17.6845  17.8447  18.5167  18.6492  18.7626
    19.3541  19.6435  19.8917  20.1771  20.3812  20.3983  21.0681  21.4874
    22.7528  23.7093

          k = 0.2222 0.3333 0.4444 (  4037 PWs)   bands (ev):

   -67.3333 -67.3236 -67.3169 -66.5363 -34.1413 -33.9066 -33.8637 -33.3101
   -33.2921 -33.2838 -33.1568 -33.1526 -33.1285 -32.6544 -32.6454 -32.6423
     1.8303  10.2867  10.7151  11.3591  14.7252  15.8587  16.2707  16.8405
    17.0121  17.0625  17.3103  17.5589  17.8476  18.4209  18.5351  18.7279
    19.4694  19.7485  19.9636  20.0621  20.3222  20.4552  20.7332  21.6912
    22.3556  23.6896

          k = 0.2222 0.4444 0.4444 (  4052 PWs)   bands (ev):

   -67.3287 -67.3240 -67.3211 -66.5364 -34.1574 -33.9027 -33.8494 -33.3222
   -33.2959 -33.2952 -33.1515 -33.1512 -33.1174 -32.6515 -32.6430 -32.6425
     1.9969  10.2493  10.2535  11.2862  14.9464  16.0857  16.1719  16.6801
    17.2047  17.2412  17.3399  17.7471  17.8450  18.1969  18.3688  18.7293
    19.6954  19.7360  19.8900  19.9609  20.2310  20.6473  20.8159  21.6147
    21.8578  23.8918

          k = 0.3333 0.3333 0.3333 (  4032 PWs)   bands (ev):

   -67.3346 -67.3196 -67.3196 -66.5363 -34.1575 -33.8773 -33.8773 -33.3066
   -33.3066 -33.3009 -33.1410 -33.1410 -33.1339 -32.6545 -32.6405 -32.6405
     1.9021  10.6424  10.6424  10.7364  14.6314  16.0859  16.4487  16.4487
    17.0972  17.0972  17.5118  17.7490  17.7490  18.4521  18.5276  18.5276
    19.5081  19.8527  19.8527  20.2903  20.3770  20.3770  21.3689  21.3689
    22.9704  22.9704

          k = 0.3333 0.3333 0.4444 (  4056 PWs)   bands (ev):

   -67.3306 -67.3236 -67.3196 -66.5364 -34.1742 -33.8766 -33.8596 -33.3193
   -33.3156 -33.3085 -33.1384 -33.1320 -33.1264 -32.6491 -32.6413 -32.6392
     2.0702  10.2064  10.5733  10.6668  14.8564  16.0372  16.2897  16.6350
    17.3167  17.3340  17.5124  17.7333  17.8260  18.2914  18.4234  18.5193
    19.6680  19.9054  20.0212  20.2107  20.3913  20.4091  20.7770  21.7187
    22.3437  23.1545

          k = 0.3333 0.4444 0.4444 (  4052 PWs)   bands (ev):

   -67.3273 -67.3240 -67.3224 -66.5364 -34.1922 -33.8681 -33.8492 -33.3309
   -33.3224 -33.3216 -33.1292 -33.1288 -33.1173 -32.6439 -32.6388 -32.6386
     2.2417  10.1505  10.1600  10.5591  14.9354  16.1708  16.2843  16.4817
    17.5939  17.6008  17.6686  17.8620  17.8683  18.1350  18.3022  18.4944
    19.8651  19.9523  20.0428  20.1422  20.4207  20.4861  20.7239  21.2323
    22.3677  23.1210

          k = 0.4444 0.4444 0.4444 (  4044 PWs)   bands (ev):

   -67.3257 -67.3239 -67.3239 -66.5363 -34.2112 -33.8491 -33.8491 -33.3365
   -33.3365 -33.3357 -33.1177 -33.1177 -33.1168 -32.6384 -32.6363 -32.6363
     2.4174  10.0883  10.0883  10.1109  14.9175  16.2409  16.3323  16.3323
    17.8966  17.8966  17.9825  17.9825  17.9867  18.0039  18.3685  18.3685
    20.0143  20.0721  20.0721  20.2611  20.3454  20.3454  20.7359  20.7359
    22.6705  22.6705

     the Fermi energy is    18.7337 ev

!    total energy              =   -1345.15820199 Ry
     Harris-Foulkes estimate   =   -1345.15820199 Ry
     estimated scf accuracy    <          5.8E-10 Ry

     total all-electron energy =    -10291.759837 Ry

     The total energy is the sum of the following terms:

     one-electron contribution =    -446.72360440 Ry
     hartree contribution      =     269.19162242 Ry
     xc contribution           =    -117.08314366 Ry
     ewald contribution        =    -711.61403732 Ry
     one-center paw contrib.   =    -338.92912886 Ry
     smearing contrib. (-TS)   =       0.00008983 Ry

     total magnetization       =     7.68 Bohr mag/cell
     absolute magnetization    =     8.03 Bohr mag/cell

     convergence has been achieved in  26 iterations

     Forces acting on atoms (Ry/au):


     negative rho (up, down):  0.000E+00 3.912E-04
     atom    1 type  1   force =     0.00000000    0.00000000    0.00000000
     atom    2 type  1   force =     0.00000000    0.00000000    0.00000000
     atom    3 type  1   force =     0.00000000    0.00000000    0.00000000
     atom    4 type  1   force =     0.00000000    0.00000000    0.00000000
     atom    5 type  2   force =     0.00000000    0.00000000    0.00000000

     Total force =     0.000000     Total SCF correction =     0.000000


     entering subroutine stress ...


     negative rho (up, down):  0.000E+00 3.912E-04
          total   stress  (Ry/bohr**3)                   (kbar)     P=  118.89
   0.00080817   0.00000000   0.00000000        118.89      0.00      0.00
   0.00000000   0.00080817   0.00000000          0.00    118.89      0.00
   0.00000000   0.00000000   0.00080817          0.00      0.00    118.89


     Writing output data file config.save
 
     init_run     :      2.34s CPU      2.44s WALL (       1 calls)
     electrons    :    145.82s CPU    149.90s WALL (       1 calls)
     forces       :      0.54s CPU      0.54s WALL (       1 calls)
     stress       :      1.70s CPU      1.71s WALL (       1 calls)

     Called by init_run:
     wfcinit      :      1.55s CPU      1.59s WALL (       1 calls)
     potinit      :      0.40s CPU      0.41s WALL (       1 calls)

     Called by electrons:
     c_bands      :    113.55s CPU    116.53s WALL (      26 calls)
     sum_band     :     19.64s CPU     20.31s WALL (      26 calls)
     v_of_rho     :      0.83s CPU      0.86s WALL (      27 calls)
     newd         :      1.21s CPU      1.23s WALL (      27 calls)
     mix_rho      :      0.24s CPU      0.24s WALL (      26 calls)

     Called by c_bands:
     init_us_2    :      1.85s CPU      1.90s WALL (    3850 calls)
     cegterg      :    105.90s CPU    108.75s WALL (    1820 calls)

     Called by sum_band:
     sum_band:bec :      0.05s CPU      0.06s WALL (    1820 calls)
     addusdens    :      3.20s CPU      3.22s WALL (      26 calls)

     Called by *egterg:
     h_psi        :     63.98s CPU     65.98s WALL (    6234 calls)
     s_psi        :      2.76s CPU      2.84s WALL (    6234 calls)
     g_psi        :      0.61s CPU      0.63s WALL (    4344 calls)
     cdiaghg      :     18.04s CPU     18.36s WALL (    6164 calls)

     Called by h_psi:
     add_vuspsi   :      2.72s CPU      2.81s WALL (    6234 calls)

     General routines
     calbec       :      5.70s CPU      5.94s WALL (    8404 calls)
     fft          :      0.47s CPU      0.48s WALL (     871 calls)
     ffts         :      0.02s CPU      0.02s WALL (     106 calls)
     fftw         :     55.34s CPU     57.01s WALL (  435436 calls)
     interpolate  :      0.10s CPU      0.11s WALL (     106 calls)
     davcio       :      0.03s CPU      0.24s WALL (      70 calls)
 
     Parallel routines
     fft_scatter  :     22.52s CPU     23.56s WALL (  436413 calls)

     PAW routines
     PAW_pot      :     10.64s CPU     10.95s WALL (      27 calls)
     PAW_symme    :      0.04s CPU      0.04s WALL (      53 calls)
 
     PWSCF        :  2m30.95s CPU     2m35.53s WALL

 
   This run was terminated on:  22:40:22  26Oct2020            

=------------------------------------------------------------------------------=
   JOB DONE.
=------------------------------------------------------------------------------=
