
     Program PWSCF v.5.2.0 starts on 26Oct2020 at 22:46:41 

     This program is part of the open-source Quantum ESPRESSO suite
     for quantum simulation of materials; please cite
         "P. Giannozzi et al., J. Phys.:Condens. Matter 21 395502 (2009);
          URL http://www.quantum-espresso.org", 
     in publications or presentations arising from this work. More details at
     http://www.quantum-espresso.org/quote

     Parallel version (MPI), running on     6 processors
     R & G space division:  proc/nbgrp/npool/nimage =       6
     Reading input from 4.in

     Current dimensions of program PWSCF are:
     Max number of different atomic species (ntypx) = 10
     Max number of k-points (npk) =  40000
     Max angular momentum in pseudopotentials (lmaxx) =  3

     IMPORTANT: XC functional enforced from input :
     Exchange-correlation      = PBE ( 1  4  3  4 0 0)
     Any further DFT definition will be discarded
     Please, verify this is what you really want

               file Fe_PSEUDO: wavefunction(s)  3P 3D renormalized
               file N_PSEUDO: wavefunction(s)  2S renormalized

     Subspace diagonalization in iterative solution of the eigenvalue problem:
     a serial algorithm will be used

 
     Parallelization info
     --------------------
     sticks:   dense  smooth     PW     G-vecs:    dense   smooth      PW
     Min         346     228     66                11834     6409    1004
     Max         347     229     67                11837     6424    1007
     Sum        2077    1369    401                71015    38497    6031
 
     Generating pointlists ...
     new r_m :   0.2063 (alat units)  1.4318 (a.u.) for type    1
     new r_m :   0.2063 (alat units)  1.4318 (a.u.) for type    2


     bravais-lattice index     =            0
     lattice parameter (alat)  =       6.9422  a.u.
     unit-cell volume          =     334.5777 (a.u.)^3
     number of atoms/cell      =            5
     number of atomic types    =            2
     number of electrons       =        69.00
     number of Kohn-Sham states=           42
     kinetic-energy cutoff     =      90.0000  Ry
     charge density cutoff     =     540.0000  Ry
     convergence threshold     =      1.0E-08
     mixing beta               =       0.7000
     number of iterations used =            8  plain     mixing
     Exchange-correlation      = PBE ( 1  4  3  4 0 0)

     celldm(1)=   6.942230  celldm(2)=   0.000000  celldm(3)=   0.000000
     celldm(4)=   0.000000  celldm(5)=   0.000000  celldm(6)=   0.000000

     crystal axes: (cart. coord. in units of alat)
               a(1) = (   1.000000   0.000000   0.000000 )  
               a(2) = (   0.000000   1.000000   0.000000 )  
               a(3) = (   0.000000   0.000000   1.000000 )  

     reciprocal axes: (cart. coord. in units 2 pi/alat)
               b(1) = (  1.000000  0.000000  0.000000 )  
               b(2) = (  0.000000  1.000000  0.000000 )  
               b(3) = (  0.000000  0.000000  1.000000 )  


     PseudoPot. # 1 for Fe read from file:
     pseudo/Fe_PSEUDO
     MD5 check sum: e30d5f36a6f0cb983ee41abee56170da
     Pseudo is Projector augmented-wave + core cor, Zval = 16.0
     Generated using "atomic" code by A. Dal Corso  v.6.3
     Shape of augmentation charge: PSQ
     Using radial grid of 1191 points,  6 beta functions with: 
                l(1) =   0
                l(2) =   0
                l(3) =   1
                l(4) =   1
                l(5) =   2
                l(6) =   2
     Q(r) pseudized with 0 coefficients 


     PseudoPot. # 2 for  N read from file:
     pseudo/N_PSEUDO
     MD5 check sum: 14c48229446f9f2d411169a3abcbc3fa
     Pseudo is Projector augmented-wave + core cor, Zval =  5.0
     Generated using "atomic" code by A. Dal Corso  v.6.3
     Shape of augmentation charge: PSQ
     Using radial grid of 1085 points,  4 beta functions with: 
                l(1) =   0
                l(2) =   0
                l(3) =   1
                l(4) =   1
     Q(r) pseudized with 0 coefficients 


     atomic species   valence    mass     pseudopotential
        Fe            16.00    55.84500     Fe( 1.00)
        N              5.00    14.00650      N( 1.00)

     Starting magnetic structure 
     atomic species   magnetization
        Fe           0.500
        N           -0.010

     48 Sym. Ops., with inversion, found



   Cartesian axes

     site n.     atom                  positions (alat units)
         1           Fe  tau(   1) = (   0.0000000   0.5000000   0.5000000  )
         2           Fe  tau(   2) = (   0.5000000   0.5000000   0.0000000  )
         3           Fe  tau(   3) = (   0.5000000   0.0000000   0.5000000  )
         4           Fe  tau(   4) = (   0.0000000   0.0000000   0.0000000  )
         5           N   tau(   5) = (   0.5000000   0.5000000   0.5000000  )

     number of k points=    70  Marzari-Vanderbilt smearing, width (Ry)=  0.0050
                       cart. coord. in units 2pi/alat
        k(    1) = (   0.0000000   0.0000000   0.0000000), wk =   0.0013717
        k(    2) = (   0.0000000   0.0000000   0.1111111), wk =   0.0082305
        k(    3) = (   0.0000000   0.0000000   0.2222222), wk =   0.0082305
        k(    4) = (   0.0000000   0.0000000   0.3333333), wk =   0.0082305
        k(    5) = (   0.0000000   0.0000000   0.4444444), wk =   0.0082305
        k(    6) = (   0.0000000   0.1111111   0.1111111), wk =   0.0164609
        k(    7) = (   0.0000000   0.1111111   0.2222222), wk =   0.0329218
        k(    8) = (   0.0000000   0.1111111   0.3333333), wk =   0.0329218
        k(    9) = (   0.0000000   0.1111111   0.4444444), wk =   0.0329218
        k(   10) = (   0.0000000   0.2222222   0.2222222), wk =   0.0164609
        k(   11) = (   0.0000000   0.2222222   0.3333333), wk =   0.0329218
        k(   12) = (   0.0000000   0.2222222   0.4444444), wk =   0.0329218
        k(   13) = (   0.0000000   0.3333333   0.3333333), wk =   0.0164609
        k(   14) = (   0.0000000   0.3333333   0.4444444), wk =   0.0329218
        k(   15) = (   0.0000000   0.4444444   0.4444444), wk =   0.0164609
        k(   16) = (   0.1111111   0.1111111   0.1111111), wk =   0.0109739
        k(   17) = (   0.1111111   0.1111111   0.2222222), wk =   0.0329218
        k(   18) = (   0.1111111   0.1111111   0.3333333), wk =   0.0329218
        k(   19) = (   0.1111111   0.1111111   0.4444444), wk =   0.0329218
        k(   20) = (   0.1111111   0.2222222   0.2222222), wk =   0.0329218
        k(   21) = (   0.1111111   0.2222222   0.3333333), wk =   0.0658436
        k(   22) = (   0.1111111   0.2222222   0.4444444), wk =   0.0658436
        k(   23) = (   0.1111111   0.3333333   0.3333333), wk =   0.0329218
        k(   24) = (   0.1111111   0.3333333   0.4444444), wk =   0.0658436
        k(   25) = (   0.1111111   0.4444444   0.4444444), wk =   0.0329218
        k(   26) = (   0.2222222   0.2222222   0.2222222), wk =   0.0109739
        k(   27) = (   0.2222222   0.2222222   0.3333333), wk =   0.0329218
        k(   28) = (   0.2222222   0.2222222   0.4444444), wk =   0.0329218
        k(   29) = (   0.2222222   0.3333333   0.3333333), wk =   0.0329218
        k(   30) = (   0.2222222   0.3333333   0.4444444), wk =   0.0658436
        k(   31) = (   0.2222222   0.4444444   0.4444444), wk =   0.0329218
        k(   32) = (   0.3333333   0.3333333   0.3333333), wk =   0.0109739
        k(   33) = (   0.3333333   0.3333333   0.4444444), wk =   0.0329218
        k(   34) = (   0.3333333   0.4444444   0.4444444), wk =   0.0329218
        k(   35) = (   0.4444444   0.4444444   0.4444444), wk =   0.0109739
        k(   36) = (   0.0000000   0.0000000   0.0000000), wk =   0.0013717
        k(   37) = (   0.0000000   0.0000000   0.1111111), wk =   0.0082305
        k(   38) = (   0.0000000   0.0000000   0.2222222), wk =   0.0082305
        k(   39) = (   0.0000000   0.0000000   0.3333333), wk =   0.0082305
        k(   40) = (   0.0000000   0.0000000   0.4444444), wk =   0.0082305
        k(   41) = (   0.0000000   0.1111111   0.1111111), wk =   0.0164609
        k(   42) = (   0.0000000   0.1111111   0.2222222), wk =   0.0329218
        k(   43) = (   0.0000000   0.1111111   0.3333333), wk =   0.0329218
        k(   44) = (   0.0000000   0.1111111   0.4444444), wk =   0.0329218
        k(   45) = (   0.0000000   0.2222222   0.2222222), wk =   0.0164609
        k(   46) = (   0.0000000   0.2222222   0.3333333), wk =   0.0329218
        k(   47) = (   0.0000000   0.2222222   0.4444444), wk =   0.0329218
        k(   48) = (   0.0000000   0.3333333   0.3333333), wk =   0.0164609
        k(   49) = (   0.0000000   0.3333333   0.4444444), wk =   0.0329218
        k(   50) = (   0.0000000   0.4444444   0.4444444), wk =   0.0164609
        k(   51) = (   0.1111111   0.1111111   0.1111111), wk =   0.0109739
        k(   52) = (   0.1111111   0.1111111   0.2222222), wk =   0.0329218
        k(   53) = (   0.1111111   0.1111111   0.3333333), wk =   0.0329218
        k(   54) = (   0.1111111   0.1111111   0.4444444), wk =   0.0329218
        k(   55) = (   0.1111111   0.2222222   0.2222222), wk =   0.0329218
        k(   56) = (   0.1111111   0.2222222   0.3333333), wk =   0.0658436
        k(   57) = (   0.1111111   0.2222222   0.4444444), wk =   0.0658436
        k(   58) = (   0.1111111   0.3333333   0.3333333), wk =   0.0329218
        k(   59) = (   0.1111111   0.3333333   0.4444444), wk =   0.0658436
        k(   60) = (   0.1111111   0.4444444   0.4444444), wk =   0.0329218
        k(   61) = (   0.2222222   0.2222222   0.2222222), wk =   0.0109739
        k(   62) = (   0.2222222   0.2222222   0.3333333), wk =   0.0329218
        k(   63) = (   0.2222222   0.2222222   0.4444444), wk =   0.0329218
        k(   64) = (   0.2222222   0.3333333   0.3333333), wk =   0.0329218
        k(   65) = (   0.2222222   0.3333333   0.4444444), wk =   0.0658436
        k(   66) = (   0.2222222   0.4444444   0.4444444), wk =   0.0329218
        k(   67) = (   0.3333333   0.3333333   0.3333333), wk =   0.0109739
        k(   68) = (   0.3333333   0.3333333   0.4444444), wk =   0.0329218
        k(   69) = (   0.3333333   0.4444444   0.4444444), wk =   0.0329218
        k(   70) = (   0.4444444   0.4444444   0.4444444), wk =   0.0109739

     Dense  grid:    71015 G-vectors     FFT dimensions: (  54,  54,  54)

     Smooth grid:    38497 G-vectors     FFT dimensions: (  45,  45,  45)

     Largest allocated arrays     est. size (Mb)     dimensions
        Kohn-Sham Wavefunctions         0.53 Mb     (     823,   42)
        NL pseudopotentials             1.00 Mb     (     823,   80)
        Each V/rho on FFT grid          0.80 Mb     (   26244,   2)
        Each G-vector array             0.09 Mb     (   11836)
        G-vector shells                 0.00 Mb     (     552)
     Largest temporary arrays     est. size (Mb)     dimensions
        Auxiliary wavefunctions         2.11 Mb     (     823,  168)
        Each subspace H/S matrix        0.43 Mb     (     168,  168)
        Each <psi_i|beta_j> matrix      0.05 Mb     (      80,   42)
        Arrays for rho mixing           3.20 Mb     (   26244,    8)

     Check: negative/imaginary core charge=   -0.000002    0.000000

     Initial potential from superposition of free atoms

     starting charge   68.99837, renormalised to   69.00000
     Starting wfc are   44 randomized atomic wfcs
     Checking if some PAW data can be deallocated... 

     total cpu time spent up to now is        3.8 secs

     per-process dynamical memory:    69.1 Mb

     Self-consistent Calculation

     iteration #  1     ecut=    90.00 Ry     beta=0.70
     Davidson diagonalization with overlap
     ethr =  1.00E-02,  avg # of iterations =  3.1

     negative rho (up, down):  0.000E+00 8.415E-04
 
     Magnetic moment per site:
     atom:    1    charge:   12.7327    magn:    4.0980    constr:    0.0000
     atom:    2    charge:   12.7327    magn:    4.0980    constr:    0.0000
     atom:    3    charge:   12.7327    magn:    4.0980    constr:    0.0000
     atom:    4    charge:   12.6133    magn:    4.1671    constr:    0.0000
     atom:    5    charge:    4.6360    magn:    0.1185    constr:    0.0000

     total cpu time spent up to now is       12.2 secs

     total energy              =   -1344.13969936 Ry
     Harris-Foulkes estimate   =   -1343.44179559 Ry
     estimated scf accuracy    <       2.86713999 Ry

     total magnetization       =    13.87 Bohr mag/cell
     absolute magnetization    =    14.05 Bohr mag/cell

     iteration #  2     ecut=    90.00 Ry     beta=0.70
     Davidson diagonalization with overlap
     ethr =  4.16E-03,  avg # of iterations =  3.4

     negative rho (up, down):  0.000E+00 7.245E-04
 
     Magnetic moment per site:
     atom:    1    charge:   12.7239    magn:    3.8169    constr:    0.0000
     atom:    2    charge:   12.7239    magn:    3.8169    constr:    0.0000
     atom:    3    charge:   12.7239    magn:    3.8169    constr:    0.0000
     atom:    4    charge:   13.0645    magn:    3.5705    constr:    0.0000
     atom:    5    charge:    4.2260    magn:    0.0571    constr:    0.0000

     total cpu time spent up to now is       19.9 secs

     total energy              =   -1343.29666529 Ry
     Harris-Foulkes estimate   =   -1345.74556593 Ry
     estimated scf accuracy    <       8.51495300 Ry

     total magnetization       =     9.38 Bohr mag/cell
     absolute magnetization    =    10.50 Bohr mag/cell

     iteration #  3     ecut=    90.00 Ry     beta=0.70
     Davidson diagonalization with overlap
     ethr =  4.16E-03,  avg # of iterations =  3.5

     negative rho (up, down):  0.000E+00 5.545E-04
 
     Magnetic moment per site:
     atom:    1    charge:   12.8846    magn:    3.4483    constr:    0.0000
     atom:    2    charge:   12.8846    magn:    3.4483    constr:    0.0000
     atom:    3    charge:   12.8846    magn:    3.4483    constr:    0.0000
     atom:    4    charge:   12.8118    magn:    3.0187    constr:    0.0000
     atom:    5    charge:    4.0300    magn:    0.0241    constr:    0.0000

     total cpu time spent up to now is       28.3 secs

     total energy              =   -1343.61760345 Ry
     Harris-Foulkes estimate   =   -1346.18504485 Ry
     estimated scf accuracy    <      25.52686566 Ry

     total magnetization       =     3.80 Bohr mag/cell
     absolute magnetization    =     4.50 Bohr mag/cell

     iteration #  4     ecut=    90.00 Ry     beta=0.70
     Davidson diagonalization with overlap
     ethr =  4.16E-03,  avg # of iterations =  3.2

     negative rho (up, down):  0.000E+00 1.011E-03
 
     Magnetic moment per site:
     atom:    1    charge:   12.7738    magn:    2.2624    constr:    0.0000
     atom:    2    charge:   12.7738    magn:    2.2624    constr:    0.0000
     atom:    3    charge:   12.7738    magn:    2.2624    constr:    0.0000
     atom:    4    charge:   12.7280    magn:    1.8794    constr:    0.0000
     atom:    5    charge:    4.0531    magn:   -0.0486    constr:    0.0000

     total cpu time spent up to now is       36.7 secs

     total energy              =   -1345.02496887 Ry
     Harris-Foulkes estimate   =   -1345.10284099 Ry
     estimated scf accuracy    <       0.54877262 Ry

     total magnetization       =    10.75 Bohr mag/cell
     absolute magnetization    =    11.16 Bohr mag/cell

     iteration #  5     ecut=    90.00 Ry     beta=0.70
     Davidson diagonalization with overlap
     ethr =  7.95E-04,  avg # of iterations =  3.2

     negative rho (up, down):  0.000E+00 8.682E-04
 
     Magnetic moment per site:
     atom:    1    charge:   12.8327    magn:    2.1627    constr:    0.0000
     atom:    2    charge:   12.8327    magn:    2.1627    constr:    0.0000
     atom:    3    charge:   12.8327    magn:    2.1627    constr:    0.0000
     atom:    4    charge:   12.8036    magn:    2.0427    constr:    0.0000
     atom:    5    charge:    4.1099    magn:   -0.0268    constr:    0.0000

     total cpu time spent up to now is       45.8 secs

     total energy              =   -1345.11042215 Ry
     Harris-Foulkes estimate   =   -1345.19782651 Ry
     estimated scf accuracy    <       0.24158244 Ry

     total magnetization       =     9.59 Bohr mag/cell
     absolute magnetization    =     9.95 Bohr mag/cell

     iteration #  6     ecut=    90.00 Ry     beta=0.70
     Davidson diagonalization with overlap
     ethr =  3.50E-04,  avg # of iterations =  3.0

     negative rho (up, down):  0.000E+00 7.835E-04
 
     Magnetic moment per site:
     atom:    1    charge:   12.8265    magn:    2.1148    constr:    0.0000
     atom:    2    charge:   12.8265    magn:    2.1148    constr:    0.0000
     atom:    3    charge:   12.8265    magn:    2.1148    constr:    0.0000
     atom:    4    charge:   12.7926    magn:    2.3708    constr:    0.0000
     atom:    5    charge:    4.1119    magn:    0.0065    constr:    0.0000

     total cpu time spent up to now is       54.2 secs

     total energy              =   -1345.15724221 Ry
     Harris-Foulkes estimate   =   -1345.15301177 Ry
     estimated scf accuracy    <       0.02608434 Ry

     total magnetization       =     9.38 Bohr mag/cell
     absolute magnetization    =     9.72 Bohr mag/cell

     iteration #  7     ecut=    90.00 Ry     beta=0.70
     Davidson diagonalization with overlap
     ethr =  3.78E-05,  avg # of iterations =  1.7

     negative rho (up, down):  0.000E+00 6.958E-04
 
     Magnetic moment per site:
     atom:    1    charge:   12.8272    magn:    1.9568    constr:    0.0000
     atom:    2    charge:   12.8272    magn:    1.9568    constr:    0.0000
     atom:    3    charge:   12.8272    magn:    1.9568    constr:    0.0000
     atom:    4    charge:   12.7723    magn:    2.8106    constr:    0.0000
     atom:    5    charge:    4.1111    magn:    0.0391    constr:    0.0000

     total cpu time spent up to now is       61.2 secs

     total energy              =   -1345.15713141 Ry
     Harris-Foulkes estimate   =   -1345.15901061 Ry
     estimated scf accuracy    <       0.01801536 Ry

     total magnetization       =     9.38 Bohr mag/cell
     absolute magnetization    =     9.71 Bohr mag/cell

     iteration #  8     ecut=    90.00 Ry     beta=0.70
     Davidson diagonalization with overlap
     ethr =  2.61E-05,  avg # of iterations =  2.2

     negative rho (up, down):  0.000E+00 6.675E-04
 
     Magnetic moment per site:
     atom:    1    charge:   12.8304    magn:    1.8619    constr:    0.0000
     atom:    2    charge:   12.8304    magn:    1.8619    constr:    0.0000
     atom:    3    charge:   12.8304    magn:    1.8619    constr:    0.0000
     atom:    4    charge:   12.7748    magn:    2.7250    constr:    0.0000
     atom:    5    charge:    4.1090    magn:    0.0309    constr:    0.0000

     total cpu time spent up to now is       68.7 secs

     total energy              =   -1345.16214912 Ry
     Harris-Foulkes estimate   =   -1345.16117069 Ry
     estimated scf accuracy    <       0.00209835 Ry

     total magnetization       =     9.00 Bohr mag/cell
     absolute magnetization    =     9.35 Bohr mag/cell

     iteration #  9     ecut=    90.00 Ry     beta=0.70
     Davidson diagonalization with overlap
     ethr =  3.04E-06,  avg # of iterations =  2.1

     negative rho (up, down):  0.000E+00 7.568E-04
 
     Magnetic moment per site:
     atom:    1    charge:   12.8282    magn:    1.9948    constr:    0.0000
     atom:    2    charge:   12.8282    magn:    1.9948    constr:    0.0000
     atom:    3    charge:   12.8282    magn:    1.9948    constr:    0.0000
     atom:    4    charge:   12.7737    magn:    2.7577    constr:    0.0000
     atom:    5    charge:    4.1138    magn:    0.0386    constr:    0.0000

     total cpu time spent up to now is       75.3 secs

     total energy              =   -1345.15958522 Ry
     Harris-Foulkes estimate   =   -1345.16297542 Ry
     estimated scf accuracy    <       0.00203142 Ry

     total magnetization       =     8.58 Bohr mag/cell
     absolute magnetization    =     8.96 Bohr mag/cell

     iteration # 10     ecut=    90.00 Ry     beta=0.70
     Davidson diagonalization with overlap
     ethr =  2.94E-06,  avg # of iterations =  1.9

     negative rho (up, down):  0.000E+00 8.265E-04
 
     Magnetic moment per site:
     atom:    1    charge:   12.8267    magn:    2.0829    constr:    0.0000
     atom:    2    charge:   12.8267    magn:    2.0829    constr:    0.0000
     atom:    3    charge:   12.8267    magn:    2.0829    constr:    0.0000
     atom:    4    charge:   12.7748    magn:    2.7408    constr:    0.0000
     atom:    5    charge:    4.1174    magn:    0.0454    constr:    0.0000

     total cpu time spent up to now is       81.7 secs

     total energy              =   -1345.15927031 Ry
     Harris-Foulkes estimate   =   -1345.16103434 Ry
     estimated scf accuracy    <       0.00220118 Ry

     total magnetization       =     9.10 Bohr mag/cell
     absolute magnetization    =     9.44 Bohr mag/cell

     iteration # 11     ecut=    90.00 Ry     beta=0.70
     Davidson diagonalization with overlap
     ethr =  2.94E-06,  avg # of iterations =  1.9

     negative rho (up, down):  0.000E+00 5.451E-04
 
     Magnetic moment per site:
     atom:    1    charge:   12.8335    magn:    1.7231    constr:    0.0000
     atom:    2    charge:   12.8335    magn:    1.7231    constr:    0.0000
     atom:    3    charge:   12.8335    magn:    1.7231    constr:    0.0000
     atom:    4    charge:   12.7747    magn:    2.6963    constr:    0.0000
     atom:    5    charge:    4.1042    magn:    0.0142    constr:    0.0000

     total cpu time spent up to now is       88.6 secs

     total energy              =   -1345.15574979 Ry
     Harris-Foulkes estimate   =   -1345.15980846 Ry
     estimated scf accuracy    <       0.00288479 Ry

     total magnetization       =     9.34 Bohr mag/cell
     absolute magnetization    =     9.67 Bohr mag/cell

     iteration # 12     ecut=    90.00 Ry     beta=0.70
     Davidson diagonalization with overlap
     ethr =  2.94E-06,  avg # of iterations =  3.1

     negative rho (up, down):  0.000E+00 2.750E-04
 
     Magnetic moment per site:
     atom:    1    charge:   12.8409    magn:    1.3152    constr:    0.0000
     atom:    2    charge:   12.8409    magn:    1.3152    constr:    0.0000
     atom:    3    charge:   12.8409    magn:    1.3152    constr:    0.0000
     atom:    4    charge:   12.7739    magn:    2.6499    constr:    0.0000
     atom:    5    charge:    4.0880    magn:   -0.0227    constr:    0.0000

     total cpu time spent up to now is       97.8 secs

     total energy              =   -1345.15643940 Ry
     Harris-Foulkes estimate   =   -1345.16512359 Ry
     estimated scf accuracy    <       0.00122191 Ry

     total magnetization       =     8.19 Bohr mag/cell
     absolute magnetization    =     8.58 Bohr mag/cell

     iteration # 13     ecut=    90.00 Ry     beta=0.70
     Davidson diagonalization with overlap
     ethr =  1.77E-06,  avg # of iterations =  3.4

     negative rho (up, down):  0.000E+00 2.730E-04
 
     Magnetic moment per site:
     atom:    1    charge:   12.8430    magn:    1.2151    constr:    0.0000
     atom:    2    charge:   12.8430    magn:    1.2151    constr:    0.0000
     atom:    3    charge:   12.8430    magn:    1.2151    constr:    0.0000
     atom:    4    charge:   12.7739    magn:    2.6456    constr:    0.0000
     atom:    5    charge:    4.0837    magn:   -0.0326    constr:    0.0000

     total cpu time spent up to now is      108.6 secs

     total energy              =   -1345.16441610 Ry
     Harris-Foulkes estimate   =   -1345.16577492 Ry
     estimated scf accuracy    <       0.00058996 Ry

     total magnetization       =     7.22 Bohr mag/cell
     absolute magnetization    =     7.60 Bohr mag/cell

     iteration # 14     ecut=    90.00 Ry     beta=0.70
     Davidson diagonalization with overlap
     ethr =  8.55E-07,  avg # of iterations =  2.5

     negative rho (up, down):  0.000E+00 2.754E-04
 
     Magnetic moment per site:
     atom:    1    charge:   12.8419    magn:    1.2907    constr:    0.0000
     atom:    2    charge:   12.8419    magn:    1.2907    constr:    0.0000
     atom:    3    charge:   12.8419    magn:    1.2907    constr:    0.0000
     atom:    4    charge:   12.7740    magn:    2.6533    constr:    0.0000
     atom:    5    charge:    4.0857    magn:   -0.0271    constr:    0.0000

     total cpu time spent up to now is      116.5 secs

     total energy              =   -1345.16530869 Ry
     Harris-Foulkes estimate   =   -1345.16503521 Ry
     estimated scf accuracy    <       0.00128024 Ry

     total magnetization       =     6.98 Bohr mag/cell
     absolute magnetization    =     7.35 Bohr mag/cell

     iteration # 15     ecut=    90.00 Ry     beta=0.70
     Davidson diagonalization with overlap
     ethr =  8.55E-07,  avg # of iterations =  2.1

     negative rho (up, down):  0.000E+00 2.762E-04
 
     Magnetic moment per site:
     atom:    1    charge:   12.8424    magn:    1.2872    constr:    0.0000
     atom:    2    charge:   12.8424    magn:    1.2872    constr:    0.0000
     atom:    3    charge:   12.8424    magn:    1.2872    constr:    0.0000
     atom:    4    charge:   12.7745    magn:    2.6623    constr:    0.0000
     atom:    5    charge:    4.0848    magn:   -0.0318    constr:    0.0000

     total cpu time spent up to now is      123.6 secs

     total energy              =   -1345.16573561 Ry
     Harris-Foulkes estimate   =   -1345.16567085 Ry
     estimated scf accuracy    <       0.00075303 Ry

     total magnetization       =     7.17 Bohr mag/cell
     absolute magnetization    =     7.54 Bohr mag/cell

     iteration # 16     ecut=    90.00 Ry     beta=0.70
     Davidson diagonalization with overlap
     ethr =  8.55E-07,  avg # of iterations =  1.0

     negative rho (up, down):  0.000E+00 3.563E-04
 
     Magnetic moment per site:
     atom:    1    charge:   12.8382    magn:    1.5010    constr:    0.0000
     atom:    2    charge:   12.8382    magn:    1.5010    constr:    0.0000
     atom:    3    charge:   12.8382    magn:    1.5010    constr:    0.0000
     atom:    4    charge:   12.7739    magn:    2.6892    constr:    0.0000
     atom:    5    charge:    4.0907    magn:   -0.0191    constr:    0.0000

     total cpu time spent up to now is      129.7 secs

     total energy              =   -1345.16322446 Ry
     Harris-Foulkes estimate   =   -1345.16574979 Ry
     estimated scf accuracy    <       0.00077065 Ry

     total magnetization       =     7.17 Bohr mag/cell
     absolute magnetization    =     7.54 Bohr mag/cell

     iteration # 17     ecut=    90.00 Ry     beta=0.70
     Davidson diagonalization with overlap
     ethr =  8.55E-07,  avg # of iterations =  3.1

     negative rho (up, down):  0.000E+00 3.633E-04
 
     Magnetic moment per site:
     atom:    1    charge:   12.8378    magn:    1.5104    constr:    0.0000
     atom:    2    charge:   12.8378    magn:    1.5104    constr:    0.0000
     atom:    3    charge:   12.8378    magn:    1.5104    constr:    0.0000
     atom:    4    charge:   12.7739    magn:    2.6858    constr:    0.0000
     atom:    5    charge:    4.0914    magn:   -0.0170    constr:    0.0000

     total cpu time spent up to now is      138.5 secs

     total energy              =   -1345.16618124 Ry
     Harris-Foulkes estimate   =   -1345.16619892 Ry
     estimated scf accuracy    <       0.00086412 Ry

     total magnetization       =     7.75 Bohr mag/cell
     absolute magnetization    =     8.09 Bohr mag/cell

     iteration # 18     ecut=    90.00 Ry     beta=0.70
     Davidson diagonalization with overlap
     ethr =  8.55E-07,  avg # of iterations =  1.0

     negative rho (up, down):  0.000E+00 3.903E-04
 
     Magnetic moment per site:
     atom:    1    charge:   12.8358    magn:    1.5510    constr:    0.0000
     atom:    2    charge:   12.8358    magn:    1.5510    constr:    0.0000
     atom:    3    charge:   12.8358    magn:    1.5510    constr:    0.0000
     atom:    4    charge:   12.7734    magn:    2.6674    constr:    0.0000
     atom:    5    charge:    4.0956    magn:   -0.0044    constr:    0.0000

     total cpu time spent up to now is      145.0 secs

     total energy              =   -1345.16601537 Ry
     Harris-Foulkes estimate   =   -1345.16618836 Ry
     estimated scf accuracy    <       0.00068037 Ry

     total magnetization       =     7.77 Bohr mag/cell
     absolute magnetization    =     8.11 Bohr mag/cell

     iteration # 19     ecut=    90.00 Ry     beta=0.70
     Davidson diagonalization with overlap
     ethr =  8.55E-07,  avg # of iterations =  2.0

     negative rho (up, down):  0.000E+00 3.769E-04
 
     Magnetic moment per site:
     atom:    1    charge:   12.8361    magn:    1.5354    constr:    0.0000
     atom:    2    charge:   12.8361    magn:    1.5354    constr:    0.0000
     atom:    3    charge:   12.8361    magn:    1.5354    constr:    0.0000
     atom:    4    charge:   12.7734    magn:    2.6664    constr:    0.0000
     atom:    5    charge:    4.0951    magn:   -0.0054    constr:    0.0000

     total cpu time spent up to now is      152.2 secs

     total energy              =   -1345.16619596 Ry
     Harris-Foulkes estimate   =   -1345.16616337 Ry
     estimated scf accuracy    <       0.00013806 Ry

     total magnetization       =     7.85 Bohr mag/cell
     absolute magnetization    =     8.19 Bohr mag/cell

     iteration # 20     ecut=    90.00 Ry     beta=0.70
     Davidson diagonalization with overlap
     ethr =  2.00E-07,  avg # of iterations =  1.1

     negative rho (up, down):  0.000E+00 3.339E-04
 
     Magnetic moment per site:
     atom:    1    charge:   12.8364    magn:    1.4844    constr:    0.0000
     atom:    2    charge:   12.8364    magn:    1.4844    constr:    0.0000
     atom:    3    charge:   12.8364    magn:    1.4844    constr:    0.0000
     atom:    4    charge:   12.7731    magn:    2.6508    constr:    0.0000
     atom:    5    charge:    4.0948    magn:   -0.0031    constr:    0.0000

     total cpu time spent up to now is      158.9 secs

     total energy              =   -1345.16608878 Ry
     Harris-Foulkes estimate   =   -1345.16621199 Ry
     estimated scf accuracy    <       0.00011385 Ry

     total magnetization       =     7.81 Bohr mag/cell
     absolute magnetization    =     8.16 Bohr mag/cell

     iteration # 21     ecut=    90.00 Ry     beta=0.70
     Davidson diagonalization with overlap
     ethr =  1.65E-07,  avg # of iterations =  2.8

     negative rho (up, down):  0.000E+00 3.341E-04
 
     Magnetic moment per site:
     atom:    1    charge:   12.8366    magn:    1.4841    constr:    0.0000
     atom:    2    charge:   12.8366    magn:    1.4841    constr:    0.0000
     atom:    3    charge:   12.8366    magn:    1.4841    constr:    0.0000
     atom:    4    charge:   12.7732    magn:    2.6524    constr:    0.0000
     atom:    5    charge:    4.0947    magn:   -0.0040    constr:    0.0000

     total cpu time spent up to now is      167.5 secs

     total energy              =   -1345.16628322 Ry
     Harris-Foulkes estimate   =   -1345.16628218 Ry
     estimated scf accuracy    <       0.00000710 Ry

     total magnetization       =     7.67 Bohr mag/cell
     absolute magnetization    =     8.02 Bohr mag/cell

     iteration # 22     ecut=    90.00 Ry     beta=0.70
     Davidson diagonalization with overlap
     ethr =  1.03E-08,  avg # of iterations =  1.9

     negative rho (up, down):  0.000E+00 3.360E-04
 
     Magnetic moment per site:
     atom:    1    charge:   12.8368    magn:    1.4851    constr:    0.0000
     atom:    2    charge:   12.8368    magn:    1.4851    constr:    0.0000
     atom:    3    charge:   12.8368    magn:    1.4851    constr:    0.0000
     atom:    4    charge:   12.7734    magn:    2.6536    constr:    0.0000
     atom:    5    charge:    4.0946    magn:   -0.0043    constr:    0.0000

     total cpu time spent up to now is      174.6 secs

     total energy              =   -1345.16628358 Ry
     Harris-Foulkes estimate   =   -1345.16628389 Ry
     estimated scf accuracy    <       0.00000379 Ry

     total magnetization       =     7.67 Bohr mag/cell
     absolute magnetization    =     8.02 Bohr mag/cell

     iteration # 23     ecut=    90.00 Ry     beta=0.70
     Davidson diagonalization with overlap
     ethr =  5.50E-09,  avg # of iterations =  2.3

     negative rho (up, down):  0.000E+00 3.368E-04
 
     Magnetic moment per site:
     atom:    1    charge:   12.8368    magn:    1.4863    constr:    0.0000
     atom:    2    charge:   12.8368    magn:    1.4863    constr:    0.0000
     atom:    3    charge:   12.8368    magn:    1.4863    constr:    0.0000
     atom:    4    charge:   12.7734    magn:    2.6537    constr:    0.0000
     atom:    5    charge:    4.0946    magn:   -0.0040    constr:    0.0000

     total cpu time spent up to now is      182.0 secs

     total energy              =   -1345.16628471 Ry
     Harris-Foulkes estimate   =   -1345.16628471 Ry
     estimated scf accuracy    <       0.00000015 Ry

     total magnetization       =     7.68 Bohr mag/cell
     absolute magnetization    =     8.03 Bohr mag/cell

     iteration # 24     ecut=    90.00 Ry     beta=0.70
     Davidson diagonalization with overlap
     ethr =  2.15E-10,  avg # of iterations =  3.0

     negative rho (up, down):  0.000E+00 3.368E-04
 
     Magnetic moment per site:
     atom:    1    charge:   12.8368    magn:    1.4869    constr:    0.0000
     atom:    2    charge:   12.8368    magn:    1.4869    constr:    0.0000
     atom:    3    charge:   12.8368    magn:    1.4869    constr:    0.0000
     atom:    4    charge:   12.7733    magn:    2.6538    constr:    0.0000
     atom:    5    charge:    4.0946    magn:   -0.0038    constr:    0.0000

     total cpu time spent up to now is      190.0 secs

     total energy              =   -1345.16628489 Ry
     Harris-Foulkes estimate   =   -1345.16628489 Ry
     estimated scf accuracy    <       0.00000004 Ry

     total magnetization       =     7.68 Bohr mag/cell
     absolute magnetization    =     8.03 Bohr mag/cell

     iteration # 25     ecut=    90.00 Ry     beta=0.70
     Davidson diagonalization with overlap
     ethr =  6.41E-11,  avg # of iterations =  1.8

     negative rho (up, down):  0.000E+00 3.371E-04
 
     Magnetic moment per site:
     atom:    1    charge:   12.8368    magn:    1.4873    constr:    0.0000
     atom:    2    charge:   12.8368    magn:    1.4873    constr:    0.0000
     atom:    3    charge:   12.8368    magn:    1.4873    constr:    0.0000
     atom:    4    charge:   12.7734    magn:    2.6537    constr:    0.0000
     atom:    5    charge:    4.0946    magn:   -0.0037    constr:    0.0000

     total cpu time spent up to now is      196.8 secs

     total energy              =   -1345.16628490 Ry
     Harris-Foulkes estimate   =   -1345.16628492 Ry
     estimated scf accuracy    <       0.00000009 Ry

     total magnetization       =     7.68 Bohr mag/cell
     absolute magnetization    =     8.03 Bohr mag/cell

     iteration # 26     ecut=    90.00 Ry     beta=0.70
     Davidson diagonalization with overlap
     ethr =  6.41E-11,  avg # of iterations =  2.1

     negative rho (up, down):  0.000E+00 3.371E-04
 
     Magnetic moment per site:
     atom:    1    charge:   12.8367    magn:    1.4874    constr:    0.0000
     atom:    2    charge:   12.8367    magn:    1.4874    constr:    0.0000
     atom:    3    charge:   12.8367    magn:    1.4874    constr:    0.0000
     atom:    4    charge:   12.7734    magn:    2.6536    constr:    0.0000
     atom:    5    charge:    4.0947    magn:   -0.0037    constr:    0.0000

     total cpu time spent up to now is      203.9 secs

     End of self-consistent calculation

 ------ SPIN UP ------------


          k = 0.0000 0.0000 0.0000 (  4801 PWs)   bands (ev):

   -69.9377 -69.2603 -69.2059 -69.2059 -35.9984 -35.9984 -35.9984 -35.6162
   -35.6162 -35.6162 -35.1589 -35.1589 -35.1589 -35.1523 -35.1523 -35.1523
     0.3460  11.4286  13.3306  13.3306  13.3306  13.8404  13.8404  14.1057
    14.1057  14.1057  16.0928  16.0928  16.0928  17.1988  17.1988  17.8467
    17.8467  18.3993  18.3993  18.3993  18.4666  18.4666  18.4666  18.4684
    21.8879  23.7557

          k = 0.0000 0.0000 0.1111 (  4849 PWs)   bands (ev):

   -69.9376 -69.2589 -69.2074 -69.2059 -35.9974 -35.9974 -35.9971 -35.6151
   -35.6151 -35.6140 -35.1599 -35.1599 -35.1592 -35.1571 -35.1535 -35.1535
     0.4156  11.4859  12.9275  13.1107  13.1107  13.9196  13.9311  14.1579
    14.3447  14.3447  16.0282  16.1468  16.1468  17.2219  17.2579  17.8152
    17.8706  18.3145  18.3145  18.3991  18.3991  18.3993  18.4073  18.4653
    21.9638  23.2367

          k = 0.0000 0.0000 0.2222 (  4821 PWs)   bands (ev):

   -69.9374 -69.2550 -69.2116 -69.2059 -35.9949 -35.9949 -35.9936 -35.6120
   -35.6120 -35.6080 -35.1697 -35.1628 -35.1628 -35.1599 -35.1563 -35.1563
     0.6007  11.3382  12.5047  12.7676  12.7676  14.0817  14.1360  14.3096
    14.7515  14.7515  15.8455  16.2730  16.2730  17.1951  17.2862  17.7251
    17.7691  17.9549  17.9549  18.2403  18.3997  18.4024  18.4024  18.4626
    22.1777  22.5173

          k = 0.0000 0.0000 0.3333 (  4837 PWs)   bands (ev):

   -69.9371 -69.2493 -69.2175 -69.2059 -35.9921 -35.9921 -35.9897 -35.6085
   -35.6085 -35.6005 -35.1846 -35.1665 -35.1665 -35.1607 -35.1592 -35.1592
     0.8285  10.6701  12.4977  12.4977  12.8464  14.1982  14.4180  14.5429
    15.1432  15.1432  15.5767  16.3654  16.3654  16.9845  17.3218  17.3620
    17.5821  17.5821  17.6134  18.0181  18.4001  18.4153  18.4153  18.4598
    22.0446  22.5718

          k = 0.0000 0.0000 0.4444 (  4849 PWs)   bands (ev):

   -69.9369 -69.2439 -69.2230 -69.2058 -35.9902 -35.9902 -35.9872 -35.6062
   -35.6062 -35.5952 -35.1948 -35.1691 -35.1691 -35.1613 -35.1609 -35.1609
     0.9893  10.1833  12.3534  12.3534  13.4011  14.1252  14.6323  14.8085
    15.2879  15.4354  15.4354  16.3341  16.3341  16.7328  16.9445  17.3466
    17.3749  17.3749  17.6409  17.8054  18.4003  18.4305  18.4305  18.4580
    21.9113  22.7896

          k = 0.0000 0.1111 0.1111 (  4839 PWs)   bands (ev):

   -69.9375 -69.2575 -69.2081 -69.2067 -35.9978 -35.9965 -35.9948 -35.6262
   -35.6138 -35.5997 -35.1702 -35.1609 -35.1605 -35.1572 -35.1548 -35.1484
     0.4854  11.5398  12.6989  12.8572  12.9541  13.9968  14.0045  14.2131
    14.4876  14.5141  16.0046  16.1634  16.1933  17.2495  17.2733  17.7266
    17.7839  18.2267  18.2646  18.3190  18.3253  18.4108  18.4799  18.5434
    22.0244  23.4386

          k = 0.0000 0.1111 0.2222 (  4835 PWs)   bands (ev):

   -69.9373 -69.2537 -69.2118 -69.2069 -35.9963 -35.9941 -35.9915 -35.6337
   -35.6106 -35.5837 -35.1856 -35.1654 -35.1636 -35.1583 -35.1578 -35.1441
     0.6707  11.3594  12.2608  12.6634  12.6769  14.1578  14.2074  14.3630
    14.8149  14.8595  15.8425  16.2821  16.2897  17.1606  17.3240  17.4387
    17.5850  17.9121  18.1406  18.1991  18.2429  18.3845  18.5592  18.6831
    22.2030  22.6706

          k = 0.0000 0.1111 0.3333 (  4826 PWs)   bands (ev):

   -69.9370 -69.2481 -69.2176 -69.2069 -35.9935 -35.9913 -35.9889 -35.6375
   -35.6070 -35.5697 -35.2008 -35.1704 -35.1672 -35.1608 -35.1603 -35.1418
     0.8990  10.6619  12.1388  12.4164  12.9463  14.2832  14.4866  14.5920
    15.1757  15.2152  15.5811  16.2925  16.3943  16.9303  17.0983  17.2664
    17.4912  17.5582  17.8573  18.0742  18.1805  18.3781  18.6307  18.6767
    22.2621  22.4507

          k = 0.0000 0.1111 0.4444 (  4826 PWs)   bands (ev):

   -69.9368 -69.2428 -69.2231 -69.2069 -35.9910 -35.9894 -35.9879 -35.6387
   -35.6045 -35.5613 -35.2105 -35.1736 -35.1698 -35.1625 -35.1617 -35.1410
     1.0603  10.1718  12.0380  12.2810  13.4698  14.2199  14.7017  14.8583
    15.2914  15.4594  15.4821  16.1383  16.3920  16.6638  16.8647  17.2563
    17.3562  17.4663  17.7089  17.9003  18.1443  18.3760  18.6546  18.6767
    22.1435  22.6126

          k = 0.0000 0.2222 0.2222 (  4821 PWs)   bands (ev):

   -69.9371 -69.2501 -69.2135 -69.2090 -35.9965 -35.9918 -35.9894 -35.6523
   -35.6071 -35.5583 -35.2069 -35.1680 -35.1659 -35.1614 -35.1601 -35.1305
     0.8569  11.2952  11.5679  12.4412  12.7900  14.3583  14.3843  14.5057
    15.0148  15.1109  15.7606  16.2757  16.3636  17.0234  17.0285  17.3112
    17.4594  17.7432  18.0354  18.0894  18.2585  18.3356  18.7094  18.9951
    22.1164  22.9990

          k = 0.0000 0.2222 0.3333 (  4817 PWs)   bands (ev):

   -69.9368 -69.2448 -69.2181 -69.2099 -35.9951 -35.9893 -35.9887 -35.6647
   -35.6030 -35.5376 -35.2249 -35.1708 -35.1692 -35.1649 -35.1623 -35.1214
     1.0868  10.6289  11.3682  12.2336  13.1807  14.5170  14.6619  14.7170
    15.2794  15.3912  15.5589  16.0670  16.4968  16.7586  16.8093  17.1030
    17.4763  17.6366  17.8039  17.9589  18.1975  18.3528  18.8367  19.0301
    21.9461  22.8239

          k = 0.0000 0.2222 0.4444 (  4825 PWs)   bands (ev):

   -69.9367 -69.2396 -69.2232 -69.2101 -35.9928 -35.9897 -35.9876 -35.6708
   -35.6003 -35.5258 -35.2354 -35.1727 -35.1717 -35.1668 -35.1639 -35.1170
     1.2496  10.1374  11.3036  12.1150  13.6803  14.4698  14.8916  14.9686
    15.3001  15.4964  15.6002  15.8233  16.5526  16.5544  16.6122  17.0976
    17.2987  17.5297  17.8759  17.8806  18.1784  18.2123  18.9133  18.9638
    21.9132  22.7461

          k = 0.0000 0.3333 0.3333 (  4817 PWs)   bands (ev):

   -69.9366 -69.2398 -69.2197 -69.2133 -35.9955 -35.9900 -35.9870 -35.6841
   -35.5984 -35.5122 -35.2445 -35.1716 -35.1708 -35.1694 -35.1649 -35.1066
     1.3193  10.5587  10.5964  12.0542  13.5747  14.8391  14.8442  14.8890
    15.4146  15.4610  15.5956  15.7413  16.5559  16.6490  16.6588  16.8998
    17.3290  17.6102  17.7592  17.9061  18.0444  18.5486  19.0052  19.1754
    21.2667  23.3560

          k = 0.0000 0.3333 0.4444 (  4830 PWs)   bands (ev):

   -69.9365 -69.2347 -69.2233 -69.2149 -35.9945 -35.9922 -35.9855 -35.6942
   -35.5954 -35.4982 -35.2554 -35.1739 -35.1718 -35.1708 -35.1666 -35.0989
     1.4842  10.0905  10.5356  11.9488  14.0229  14.7998  15.0858  15.1291
    15.2961  15.5105  15.5590  15.7471  16.4026  16.4749  16.7787  16.8327
    17.2041  17.4009  17.6219  17.9748  18.1746  18.5818  19.1037  19.1307
    20.9086  23.4492

          k = 0.0000 0.4444 0.4444 (  4810 PWs)   bands (ev):

   -69.9364 -69.2292 -69.2238 -69.2200 -35.9951 -35.9942 -35.9841 -35.7065
   -35.5921 -35.4830 -35.2663 -35.1754 -35.1751 -35.1694 -35.1685 -35.0893
     1.6512  10.0563  10.0568  11.8501  14.3687  15.0255  15.1867  15.2546
    15.2598  15.4097  15.5754  15.8597  16.3148  16.3966  16.5780  16.9879
    17.1147  17.2359  17.4106  17.8583  18.3846  18.9452  19.1760  19.2138
    20.1312  23.9986

          k = 0.1111 0.1111 0.1111 (  4833 PWs)   bands (ev):

   -69.9374 -69.2562 -69.2081 -69.2081 -35.9971 -35.9971 -35.9925 -35.6383
   -35.5986 -35.5986 -35.1732 -35.1695 -35.1695 -35.1505 -35.1487 -35.1487
     0.5553  11.5898  12.5641  12.5641  12.8359  14.0726  14.0726  14.3903
    14.3903  14.7347  15.9894  16.2030  16.2030  17.2677  17.2677  17.6650
    17.6650  17.9918  18.1243  18.3449  18.3449  18.4208  18.6418  18.6418
    22.0746  23.5631

          k = 0.1111 0.1111 0.2222 (  4828 PWs)   bands (ev):

   -69.9372 -69.2524 -69.2120 -69.2080 -35.9961 -35.9953 -35.9893 -35.6505
   -35.5957 -35.5782 -35.1898 -35.1799 -35.1712 -35.1508 -35.1458 -35.1435
     0.7409  11.3714  12.1436  12.2982  12.7592  14.2332  14.2783  14.4633
    14.7628  15.0139  15.8450  16.2856  16.2961  17.1771  17.2948  17.3847
    17.4088  17.7642  17.9279  18.2183  18.3460  18.3573  18.8028  18.8335
    22.2211  22.8353

          k = 0.1111 0.1111 0.3333 (  4827 PWs)   bands (ev):

   -69.9369 -69.2470 -69.2177 -69.2080 -35.9933 -35.9932 -35.9874 -35.6580
   -35.5923 -35.5607 -35.2061 -35.1886 -35.1723 -35.1525 -35.1465 -35.1394
     0.9698  10.6466  12.0644  12.0772  13.0387  14.3644  14.5556  14.6656
    15.1717  15.2810  15.5915  16.2789  16.3452  16.9178  17.0716  17.1123
    17.4318  17.6070  17.7051  18.0905  18.2512  18.3348  18.6819  18.9932
    22.4192  22.4439

          k = 0.1111 0.1111 0.4444 (  4840 PWs)   bands (ev):

   -69.9368 -69.2418 -69.2231 -69.2080 -35.9919 -35.9900 -35.9876 -35.6613
   -35.5901 -35.5506 -35.2161 -35.1935 -35.1729 -35.1537 -35.1480 -35.1374
     1.1316  10.1547  11.9344  12.0081  13.5369  14.3079  14.7718  14.9238
    15.3017  15.4555  15.5312  16.0764  16.2790  16.6269  16.9682  17.0978
    17.3349  17.4999  17.7101  17.9310  18.1853  18.3245  18.5247  19.0846
    22.3373  22.5626

          k = 0.1111 0.2222 0.2222 (  4828 PWs)   bands (ev):

   -69.9370 -69.2489 -69.2135 -69.2102 -35.9965 -35.9944 -35.9869 -35.6707
   -35.5865 -35.5574 -35.2079 -35.1849 -35.1815 -35.1463 -35.1454 -35.1307
     0.9277  11.2975  11.4895  12.0703  12.8960  14.4288  14.4573  14.6319
    14.9397  15.2094  15.7710  16.2705  16.3410  17.0324  17.0926  17.2151
    17.3966  17.5449  17.7231  18.2488  18.2505  18.3226  19.0784  19.1113
    22.1899  23.1070

          k = 0.1111 0.2222 0.3333 (  4829 PWs)   bands (ev):

   -69.9368 -69.2438 -69.2181 -69.2109 -35.9954 -35.9929 -35.9863 -35.6849
   -35.5820 -35.5360 -35.2253 -35.1936 -35.1836 -35.1473 -35.1441 -35.1215
     1.1584  10.5985  11.3117  11.9151  13.2661  14.5781  14.7288  14.8343
    15.2644  15.3771  15.5844  16.1030  16.3729  16.7660  16.9133  17.0323
    17.4427  17.4790  17.6154  18.1529  18.1985  18.2552  18.9975  19.3344
    22.0574  22.8866

          k = 0.1111 0.2222 0.4444 (  4823 PWs)   bands (ev):

   -69.9366 -69.2387 -69.2232 -69.2110 -35.9938 -35.9916 -35.9871 -35.6920
   -35.5795 -35.5235 -35.2353 -35.1992 -35.1840 -35.1481 -35.1441 -35.1169
     1.3219  10.1078  11.2416  11.8221  13.7363  14.5298  14.9603  15.0718
    15.3041  15.4791  15.6045  15.8656  16.2998  16.5443  16.8778  16.9683
    17.3033  17.4488  17.7971  18.0512  18.1017  18.2340  18.7437  19.4759
    22.0157  22.8361

          k = 0.1111 0.3333 0.3333 (  4829 PWs)   bands (ev):

   -69.9366 -69.2390 -69.2197 -69.2141 -35.9962 -35.9929 -35.9863 -35.7051
   -35.5765 -35.5118 -35.2435 -35.1951 -35.1923 -35.1454 -35.1440 -35.1067
     1.3921  10.5247  10.5397  11.7572  13.6365  14.8231  14.9046  15.0694
    15.3303  15.4727  15.5702  15.9056  16.3675  16.6369  16.7534  16.9594
    17.3285  17.3362  17.7961  18.0123  18.1094  18.3403  19.2243  19.4686
    21.3623  23.2568

          k = 0.1111 0.3333 0.4444 (  4810 PWs)   bands (ev):

   -69.9365 -69.2341 -69.2233 -69.2155 -35.9956 -35.9938 -35.9867 -35.7156
   -35.5735 -35.4977 -35.2537 -35.1994 -35.1935 -35.1452 -35.1440 -35.0990
     1.5581  10.0493  10.4838  11.6628  14.0415  14.7956  15.0917  15.2871
    15.2951  15.5100  15.5630  15.9181  16.2905  16.4470  16.7290  16.9218
    17.2038  17.3116  17.8576  17.9772  18.0310  18.4897  19.0179  19.6600
    20.9545  23.3829

          k = 0.1111 0.4444 0.4444 (  4807 PWs)   bands (ev):

   -69.9364 -69.2289 -69.2238 -69.2203 -35.9963 -35.9956 -35.9865 -35.7282
   -35.5703 -35.4829 -35.2640 -35.1993 -35.1988 -35.1442 -35.1440 -35.0893
     1.7264  10.0079  10.0099  11.5679  14.3237  14.9823  15.0460  15.2052
    15.5467  15.5527  15.6306  16.0541  16.2568  16.3627  16.5055  16.9247
    17.1750  17.2224  17.6756  17.9350  18.0862  18.8787  19.1713  19.7008
    20.1203  23.7367

          k = 0.2222 0.2222 0.2222 (  4839 PWs)   bands (ev):

   -69.9368 -69.2457 -69.2135 -69.2135 -35.9964 -35.9964 -35.9853 -35.6963
   -35.5550 -35.5550 -35.2155 -35.1982 -35.1982 -35.1333 -35.1333 -35.1292
     1.1161  11.2713  11.3116  11.3116  13.1137  14.6230  14.6230  14.9426
    14.9426  15.3046  15.7323  16.2802  16.2802  16.9699  16.9699  17.2832
    17.2832  17.2929  17.4281  18.2292  18.2292  18.3827  19.4153  19.4153
    22.2839  23.0626

          k = 0.2222 0.2222 0.3333 (  4816 PWs)   bands (ev):

   -69.9367 -69.2410 -69.2184 -69.2135 -35.9964 -35.9963 -35.9859 -35.7155
   -35.5523 -35.5290 -35.2295 -35.2111 -35.2008 -35.1332 -35.1254 -35.1196
     1.3494  10.5173  11.1358  11.2359  13.4793  14.7344  14.8926  15.1013
    15.2924  15.2962  15.6695  16.1487  16.2349  16.7250  16.7869  17.1825
    17.1855  17.3781  17.5215  18.1624  18.2204  18.3173  19.2425  19.7647
    22.2491  22.6942

          k = 0.2222 0.2222 0.4444 (  4825 PWs)   bands (ev):

   -69.9365 -69.2362 -69.2232 -69.2134 -35.9963 -35.9946 -35.9880 -35.7254
   -35.5505 -35.5144 -35.2385 -35.2182 -35.2011 -35.1338 -35.1221 -35.1142
     1.5152  10.0329  11.0321  11.1940  13.8852  14.6652  15.1480  15.1487
    15.4038  15.4931  15.6123  15.9874  16.1844  16.4983  16.7720  17.0072
    17.1476  17.5608  17.7240  18.0974  18.1975  18.2428  18.8116  20.0150
    22.2607  22.3762

          k = 0.2222 0.3333 0.3333 (  4820 PWs)   bands (ev):

   -69.9365 -69.2368 -69.2197 -69.2163 -35.9981 -35.9972 -35.9877 -35.7394
   -35.5398 -35.5106 -35.2414 -35.2163 -35.2129 -35.1244 -35.1229 -35.1068
     1.5868  10.4052  10.4376  11.0625  13.7838  14.8934  14.9979  15.1542
    15.4045  15.4578  15.8021  16.1032  16.2140  16.6145  16.6349  16.9626
    17.3048  17.3498  17.6469  18.1536  18.2331  18.2830  19.4033  19.9190
    21.6318  22.6896

          k = 0.2222 0.3333 0.4444 (  4821 PWs)   bands (ev):

   -69.9364 -69.2324 -69.2233 -69.2171 -35.9984 -35.9973 -35.9902 -35.7521
   -35.5365 -35.4963 -35.2498 -35.2222 -35.2143 -35.1239 -35.1190 -35.0990
     1.7561   9.9483  10.3583  10.9832  14.0728  14.8054  15.0278  15.2243
    15.4908  15.7154  15.8757  16.1625  16.1885  16.4240  16.6209  16.8045
    17.2868  17.5130  17.7762  18.1071  18.1703  18.3889  19.0275  20.2488
    21.0545  22.6444

          k = 0.2222 0.4444 0.4444 (  4807 PWs)   bands (ev):

   -69.9364 -69.2281 -69.2237 -69.2211 -35.9993 -35.9990 -35.9923 -35.7665
   -35.5321 -35.4827 -35.2580 -35.2219 -35.2213 -35.1191 -35.1188 -35.0893
     1.9283   9.8903   9.8976  10.8928  14.2100  14.8985  14.9503  15.0897
    15.6731  16.0022  16.1143  16.2029  16.2642  16.3996  16.5126  16.6603
    17.4077  17.4425  17.8221  17.9839  18.1018  18.7653  19.1478  19.9414
    20.4402  22.9025

          k = 0.3333 0.3333 0.3333 (  4821 PWs)   bands (ev):

   -69.9364 -69.2335 -69.2197 -69.2197 -36.0001 -36.0001 -35.9913 -35.7671
   -35.5092 -35.5092 -35.2425 -35.2281 -35.2281 -35.1093 -35.1093 -35.1048
     1.8298  10.2652  10.2652  10.4023  13.9575  14.9425  14.9951  14.9951
    15.6701  15.6701  16.1358  16.2186  16.2186  16.5759  16.5759  16.7374
    17.4743  17.5593  17.5593  18.2046  18.2046  18.3432  19.7544  19.7544
    21.9456  21.9456

          k = 0.3333 0.3333 0.4444 (  4820 PWs)   bands (ev):

   -69.9364 -69.2298 -69.2233 -69.2196 -36.0015 -36.0007 -35.9951 -35.7821
   -35.5082 -35.4922 -35.2475 -35.2362 -35.2295 -35.1082 -35.1015 -35.0976
     2.0039   9.8392  10.1799  10.3019  14.0873  14.8135  14.9330  15.0665
    15.7106  15.9694  16.2192  16.2978  16.3766  16.5451  16.5858  16.7072
    17.4827  17.6863  17.7220  18.2231  18.2888  18.3201  19.0871  20.2698
    21.0597  21.9466

          k = 0.3333 0.4444 0.4444 (  4807 PWs)   bands (ev):

   -69.9363 -69.2268 -69.2237 -69.2223 -36.0028 -36.0027 -35.9990 -35.7985
   -35.5000 -35.4825 -35.2515 -35.2380 -35.2374 -35.1000 -35.0996 -35.0893
     2.1821   9.7656   9.7778  10.1661  14.0875  14.8242  14.8785  14.9439
    15.8656  16.0640  16.2519  16.2638  16.4473  16.8104  16.8164  16.9895
    17.6318  17.6613  17.7502  18.2087  18.2609  18.5494  19.0748  19.6190
    20.9373  21.9312

          k = 0.4444 0.4444 0.4444 (  4788 PWs)   bands (ev):

   -69.9363 -69.2254 -69.2237 -69.2237 -36.0050 -36.0050 -36.0036 -35.8161
   -35.4823 -35.4823 -35.2479 -35.2457 -35.2457 -35.0897 -35.0897 -35.0889
     2.3655   9.6887   9.6887   9.7170  14.0127  14.7935  14.8340  14.8340
    16.0124  16.0124  16.2638  16.2638  16.3302  17.4470  17.4470  17.4753
    17.7449  17.7449  17.9046  18.3152  18.3152  18.3182  18.9403  18.9403
    21.2446  21.2446

 ------ SPIN DOWN ----------


          k = 0.0000 0.0000 0.0000 (  4801 PWs)   bands (ev):

   -67.3637 -67.3028 -67.3028 -66.5337 -33.9862 -33.9862 -33.9862 -33.2303
   -33.2303 -33.2303 -33.1915 -33.1915 -33.1915 -32.6387 -32.6387 -32.6387
     0.4468  11.7287  13.3950  13.3950  13.3950  15.2114  15.2114  15.5342
    15.5342  15.5342  18.0416  18.0416  18.0416  18.7055  18.7055  20.2822
    20.2822  20.2822  20.4086  20.4086  20.5095  20.8715  20.8715  20.8715
    23.0648  23.9620

          k = 0.0000 0.0000 0.1111 (  4849 PWs)   bands (ev):

   -67.3620 -67.3044 -67.3028 -66.5338 -33.9850 -33.9850 -33.9845 -33.2307
   -33.2293 -33.2293 -33.1927 -33.1927 -33.1919 -32.6416 -32.6399 -32.6399
     0.5157  11.7595  13.0947  13.2815  13.2815  15.2711  15.3106  15.5912
    15.6873  15.6873  17.9639  18.1040  18.1040  18.7120  18.8022  20.2364
    20.2364  20.2823  20.3482  20.3649  20.4467  20.6210  20.6210  20.8714
    23.1059  23.6085

          k = 0.0000 0.0000 0.2222 (  4821 PWs)   bands (ev):

   -67.3572 -67.3090 -67.3028 -66.5340 -33.9819 -33.9819 -33.9801 -33.2316
   -33.2267 -33.2267 -33.1955 -33.1955 -33.1928 -32.6489 -32.6430 -32.6430
     0.6984  11.5217  12.8554  13.0423  13.0423  15.3362  15.5862  15.7550
    16.0365  16.0365  17.7486  18.2779  18.2779  18.7215  18.8146  19.9893
    19.9893  20.1249  20.1431  20.2207  20.2207  20.2827  20.3770  20.8716
    23.0990  23.2976

          k = 0.0000 0.0000 0.3333 (  4837 PWs)   bands (ev):

   -67.3503 -67.3156 -67.3028 -66.5342 -33.9783 -33.9783 -33.9750 -33.2327
   -33.2238 -33.2238 -33.1987 -33.1987 -33.1938 -32.6573 -32.6465 -32.6465
     0.9228  10.8632  12.8213  12.8213  13.2726  15.2199  15.9601  15.9960
    16.4093  16.4093  17.4493  18.5188  18.5188  18.5899  18.7036  19.4690
    19.4690  19.7694  19.8267  20.0530  20.0530  20.2832  20.3219  20.8718
    22.9364  23.5449

          k = 0.0000 0.0000 0.4444 (  4849 PWs)   bands (ev):

   -67.3438 -67.3219 -67.3028 -66.5344 -33.9759 -33.9759 -33.9716 -33.2335
   -33.2220 -33.2220 -33.2007 -33.2007 -33.1944 -32.6629 -32.6488 -32.6488
     1.0807  10.3971  12.6958  12.6958  13.9356  14.7955  16.2274  16.2621
    16.6614  16.6614  17.1801  18.4161  18.6453  18.7642  18.7642  19.0537
    19.0537  19.4986  19.6042  19.9437  19.9437  20.2835  20.2859  20.8719
    22.9025  23.7488

          k = 0.0000 0.1111 0.1111 (  4839 PWs)   bands (ev):

   -67.3603 -67.3052 -67.3037 -66.5339 -33.9977 -33.9838 -33.9690 -33.2347
   -33.2282 -33.2274 -33.1973 -33.1938 -33.1863 -32.6454 -32.6411 -32.6395
     0.5846  11.7917  12.8625  13.1410  13.1805  15.3472  15.3817  15.6572
    15.8152  15.8159  17.9277  18.1267  18.1584  18.7531  18.7976  20.1522
    20.1890  20.2141  20.2577  20.3576  20.4307  20.5240  20.5318  20.7756
    23.1408  23.8591

          k = 0.0000 0.1111 0.2222 (  4835 PWs)   bands (ev):

   -67.3557 -67.3092 -67.3039 -66.5341 -34.0070 -33.9807 -33.9529 -33.2418
   -33.2256 -33.2252 -33.2006 -33.1966 -33.1812 -32.6517 -32.6442 -32.6417
     0.7675  11.5469  12.5131  12.9614  13.0790  15.4223  15.6391  15.8240
    16.1199  16.1292  17.7355  18.2833  18.2978  18.6956  18.7308  19.8206
    19.9573  19.9621  20.0880  20.2030  20.3618  20.3783  20.4823  20.7410
    23.2081  23.4022

          k = 0.0000 0.1111 0.3333 (  4826 PWs)   bands (ev):

   -67.3490 -67.3156 -67.3040 -66.5343 -34.0127 -33.9772 -33.9393 -33.2489
   -33.2227 -33.2226 -33.2028 -33.1998 -33.1778 -32.6577 -32.6478 -32.6455
     0.9922  10.8690  12.4345  12.7539  13.4040  15.3139  16.0063  16.0659
    16.4584  16.4689  17.4449  18.3452  18.4945  18.5283  18.6592  19.4843
    19.5008  19.7224  19.8944  19.9378  20.2485  20.3633  20.3848  20.7417
    23.1211  23.4641

          k = 0.0000 0.1111 0.4444 (  4826 PWs)   bands (ev):

   -67.3426 -67.3219 -67.3040 -66.5344 -34.0153 -33.9748 -33.9315 -33.2532
   -33.2209 -33.2207 -33.2042 -33.2018 -33.1764 -32.6611 -32.6501 -32.6484
     1.1504  10.3985  12.3634  12.6346  14.0107  14.9067  16.3032  16.3046
    16.6888  16.7036  17.1809  18.1829  18.3313  18.7863  18.7923  19.0857
    19.3052  19.5827  19.6180  19.8232  20.1434  20.3064  20.3650  20.7433
    23.1041  23.6003

          k = 0.0000 0.2222 0.2222 (  4821 PWs)   bands (ev):

   -67.3514 -67.3110 -67.3062 -66.5342 -34.0284 -33.9777 -33.9263 -33.2579
   -33.2253 -33.2227 -33.2043 -33.1994 -33.1667 -32.6556 -32.6474 -32.6416
     0.9510  11.4998  11.8228  12.7782  13.2525  15.6157  15.7747  15.9979
    16.3304  16.3643  17.6317  18.2680  18.3701  18.5069  18.5796  19.6844
    19.7684  19.8187  19.9194  20.0939  20.4444  20.4480  20.5163  20.6853
    23.1201  23.9542

          k = 0.0000 0.2222 0.3333 (  4817 PWs)   bands (ev):

   -67.3452 -67.3160 -67.3072 -66.5344 -34.0434 -33.9743 -33.9052 -33.2716
   -33.2251 -33.2195 -33.2086 -33.2026 -33.1555 -32.6573 -32.6511 -32.6441
     1.1767  10.8725  11.6516  12.5972  13.6644  15.5705  16.0785  16.2387
    16.5931  16.6223  17.4060  17.9804  18.2665  18.5844  18.5893  19.5190
    19.5372  19.7125  19.7456  19.8922  20.4113  20.4117  20.4844  20.6816
    23.0125  23.7353

          k = 0.0000 0.2222 0.4444 (  4825 PWs)   bands (ev):

   -67.3391 -67.3217 -67.3074 -66.5345 -34.0511 -33.9720 -33.8935 -33.2792
   -33.2239 -33.2175 -33.2124 -33.2046 -33.1496 -32.6567 -32.6535 -32.6473
     1.3359  10.3967  11.6146  12.4906  14.2192  15.2009  16.3425  16.4887
    16.7639  16.8477  17.1765  17.7088  18.1348  18.6123  18.8667  19.1786
    19.3758  19.6221  19.6734  19.8145  20.3959  20.4165  20.4757  20.5148
    23.0498  23.6581

          k = 0.0000 0.3333 0.3333 (  4817 PWs)   bands (ev):

   -67.3396 -67.3177 -67.3109 -66.5345 -34.0658 -33.9710 -33.8790 -33.2895
   -33.2275 -33.2160 -33.2157 -33.2058 -33.1378 -32.6550 -32.6549 -32.6443
     1.4042  10.8326  10.8975  12.4379  14.0764  15.8691  16.0267  16.4613
    16.7903  16.7998  17.2938  17.6324  18.0641  18.5084  18.7336  19.3593
    19.5311  19.5351  19.7320  19.9257  20.1467  20.5079  20.5140  20.8579
    22.5364  24.3143

          k = 0.0000 0.3333 0.4444 (  4830 PWs)   bands (ev):

   -67.3338 -67.3216 -67.3125 -66.5346 -34.0775 -33.9688 -33.8646 -33.2992
   -33.2277 -33.2218 -33.2137 -33.2079 -33.1282 -32.6574 -32.6516 -32.6464
     1.5651  10.3859  10.8482  12.3423  14.5578  15.6041  16.2211  16.6902
    16.8600  17.0672  17.1534  17.3667  17.9804  18.4031  18.9750  19.2079
    19.2672  19.5033  19.5856  20.0355  20.0969  20.5260  20.5919  20.7767
    22.3318  24.3176

          k = 0.0000 0.4444 0.4444 (  4810 PWs)   bands (ev):

   -67.3278 -67.3220 -67.3180 -66.5347 -34.0915 -33.9667 -33.8489 -33.3098
   -33.2299 -33.2282 -33.2112 -33.2100 -33.1166 -32.6600 -32.6479 -32.6462
     1.7273  10.3724  10.3763  12.2526  14.9235  15.9630  15.9831  16.8465
    16.9122  16.9151  17.1174  17.5514  17.9125  18.1339  19.0473  19.0624
    19.3052  19.4731  19.5341  19.7159  20.2636  20.5387  20.7790  20.8780
    21.8705  24.8275

          k = 0.1111 0.1111 0.1111 (  4833 PWs)   bands (ev):

   -67.3587 -67.3052 -67.3052 -66.5339 -34.0110 -33.9679 -33.9679 -33.2356
   -33.2304 -33.2304 -33.1952 -33.1952 -33.1825 -32.6491 -32.6404 -32.6404
     0.6537  11.8246  12.7775  12.7775  13.1940  15.4353  15.4353  15.7983
    15.7983  15.9804  17.9000  18.1713  18.1713  18.7715  18.7715  20.0061
    20.1172  20.1427  20.1427  20.4010  20.4010  20.4023  20.6839  20.6839
    23.1821  24.0633

          k = 0.1111 0.1111 0.2222 (  4828 PWs)   bands (ev):

   -67.3542 -67.3094 -67.3051 -66.5341 -34.0253 -33.9651 -33.9472 -33.2431
   -33.2376 -33.2283 -33.1951 -33.1924 -33.1767 -32.6549 -32.6427 -32.6422
     0.8368  11.5668  12.4040  12.5865  13.2022  15.5077  15.6963  15.9220
    16.1324  16.2329  17.7291  18.2752  18.2901  18.6811  18.6811  19.6481
    19.7887  19.9254  19.9932  20.2992  20.4496  20.4719  20.5387  20.7281
    23.2595  23.5532

          k = 0.1111 0.1111 0.3333 (  4827 PWs)   bands (ev):

   -67.3477 -67.3157 -67.3051 -66.5343 -34.0351 -33.9619 -33.9300 -33.2512
   -33.2453 -33.2237 -33.1934 -33.1921 -33.1725 -32.6588 -32.6467 -32.6454
     1.0619  10.8686  12.3703  12.3994  13.5163  15.4066  16.0637  16.1452
    16.4752  16.5173  17.4476  18.2338  18.3243  18.6241  18.6593  19.2556
    19.5479  19.7161  19.8102  20.1304  20.3512  20.3768  20.5344  20.6679
    23.2552  23.4799

          k = 0.1111 0.1111 0.4444 (  4840 PWs)   bands (ev):

   -67.3414 -67.3218 -67.3051 -66.5345 -34.0399 -33.9598 -33.9203 -33.2560
   -33.2499 -33.2196 -33.1935 -33.1919 -33.1704 -32.6597 -32.6514 -32.6471
     1.2204  10.3948  12.2897  12.3298  14.0822  15.0149  16.3640  16.3826
    16.6160  16.8207  17.1845  17.9904  18.2141  18.7879  18.8099  19.0188
    19.2804  19.6468  19.6880  20.0054  20.1070  20.3073  20.5547  20.6467
    23.2685  23.5700

          k = 0.1111 0.2222 0.2222 (  4828 PWs)   bands (ev):

   -67.3501 -67.3110 -67.3074 -66.5343 -34.0484 -33.9562 -33.9255 -33.2585
   -33.2398 -33.2386 -33.1902 -33.1872 -33.1653 -32.6588 -32.6445 -32.6418
     1.0206  11.5148  11.7669  12.3874  13.3769  15.7051  15.8415  16.1115
    16.3318  16.3855  17.6422  18.2114  18.2634  18.5899  18.6025  19.4322
    19.5368  19.8340  19.8433  20.2442  20.4428  20.4850  20.7331  20.8292
    23.2313  23.9481

          k = 0.1111 0.2222 0.3333 (  4829 PWs)   bands (ev):

   -67.3441 -67.3160 -67.3082 -66.5344 -34.0653 -33.9522 -33.9038 -33.2730
   -33.2494 -33.2376 -33.1873 -33.1849 -33.1546 -32.6598 -32.6475 -32.6437
     1.2470  10.8581  11.6121  12.2614  13.7630  15.6586  16.1561  16.3309
    16.5278  16.6659  17.4268  17.9413  18.1455  18.6013  18.6614  19.2788
    19.3048  19.7076  19.8069  20.0900  20.3809  20.4340  20.7269  20.8368
    23.1222  23.7706

          k = 0.1111 0.2222 0.4444 (  4823 PWs)   bands (ev):

   -67.3381 -67.3217 -67.3083 -66.5345 -34.0741 -33.9500 -33.8914 -33.2811
   -33.2553 -33.2364 -33.1856 -33.1848 -33.1488 -32.6570 -32.6520 -32.6457
     1.4068  10.3807  11.5691  12.1839  14.2841  15.2984  16.4061  16.5691
    16.6599  16.9782  17.1962  17.6117  18.0543  18.6274  18.8417  19.0782
    19.1798  19.7036  19.8065  19.9546  20.3200  20.3836  20.4887  20.8725
    23.1480  23.7272

          k = 0.1111 0.3333 0.3333 (  4829 PWs)   bands (ev):

   -67.3387 -67.3177 -67.3117 -66.5346 -34.0884 -33.9478 -33.8786 -33.2918
   -33.2522 -33.2487 -33.1843 -33.1825 -33.1375 -32.6587 -32.6487 -32.6436
     1.4755  10.8130  10.8553  12.1301  14.1557  15.9512  16.0740  16.5544
    16.6819  16.8739  17.3274  17.6486  17.9848  18.5079  18.7412  19.0992
    19.3930  19.5432  19.9245  19.9253  20.2624  20.4116  20.8989  20.9785
    22.5969  24.2119

          k = 0.1111 0.3333 0.4444 (  4810 PWs)   bands (ev):

   -67.3332 -67.3216 -67.3131 -66.5346 -34.1007 -33.9455 -33.8642 -33.3019
   -33.2580 -33.2510 -33.1828 -33.1820 -33.1281 -32.6568 -32.6492 -32.6450
     1.6372  10.3574  10.8097  12.0491  14.6053  15.6794  16.2450  16.7778
    16.8634  17.0632  17.1782  17.4116  17.9289  18.4043  18.8160  18.9920
    19.3564  19.5856  19.7349  19.9972  20.1417  20.5099  20.7325  21.0735
    22.3528  24.2456

          k = 0.1111 0.4444 0.4444 (  4807 PWs)   bands (ev):

   -67.3275 -67.3220 -67.3183 -66.5347 -34.1150 -33.9432 -33.8489 -33.3130
   -33.2601 -33.2594 -33.1815 -33.1812 -33.1166 -32.6573 -32.6462 -32.6449
     1.8005  10.3378  10.3393  11.9665  14.9342  16.0004  16.0402  16.8478
    16.9398  17.0020  17.1572  17.6206  17.8815  18.1388  18.6871  19.0351
    19.4394  19.5805  19.6280  19.9207  19.9915  20.7275  20.8658  21.1317
    21.8243  24.5863

          k = 0.2222 0.2222 0.2222 (  4839 PWs)   bands (ev):

   -67.3464 -67.3110 -67.3110 -66.5344 -34.0771 -33.9235 -33.9235 -33.2609
   -33.2609 -33.2582 -33.1742 -33.1742 -33.1594 -32.6618 -32.6422 -32.6422
     1.2056  11.5062  11.6337  11.6337  13.6126  15.9663  15.9663  16.3818
    16.3966  16.3966  17.6140  18.0866  18.0866  18.6344  18.6344  19.2219
    19.2262  19.7415  19.7415  20.3385  20.4376  20.4376  21.0808  21.0808
    23.3982  23.8161

          k = 0.2222 0.2222 0.3333 (  4816 PWs)   bands (ev):

   -67.3409 -67.3162 -67.3109 -66.5345 -34.0991 -33.9212 -33.8969 -33.2780
   -33.2756 -33.2611 -33.1692 -33.1637 -33.1498 -32.6608 -32.6437 -32.6427
     1.4340  10.8149  11.4946  11.5408  14.0020  15.8925  16.3480  16.3809
    16.5665  16.7445  17.4596  17.8200  17.9653  18.6065  18.6858  18.9749
    19.2138  19.6816  19.7900  20.2388  20.3914  20.4174  20.9564  21.2861
    23.3383  23.6144

          k = 0.2222 0.2222 0.4444 (  4825 PWs)   bands (ev):

   -67.3354 -67.3216 -67.3109 -66.5346 -34.1109 -33.9197 -33.8821 -33.2874
   -33.2843 -33.2621 -33.1674 -33.1589 -33.1438 -32.6563 -32.6485 -32.6430
     1.5956  10.3379  11.4097  11.5225  14.4648  15.5477  16.4106  16.6969
    16.7876  17.0780  17.2517  17.4552  17.9248  18.6160  18.7210  18.7990
    19.2523  19.7839  19.9000  20.1214  20.3453  20.3573  20.5396  21.3924
    23.3756  23.4646

          k = 0.2222 0.3333 0.3333 (  4820 PWs)   bands (ev):

   -67.3363 -67.3176 -67.3140 -66.5346 -34.1260 -33.9089 -33.8777 -33.2978
   -33.2822 -33.2783 -33.1582 -33.1564 -33.1366 -32.6582 -32.6428 -32.6418
     1.6655  10.7523  10.7603  11.4202  14.3584  16.1259  16.1733  16.5867
    16.7961  16.9213  17.4232  17.6832  17.8436  18.5154  18.6481  18.7615
    19.3531  19.6427  19.8910  20.1765  20.3808  20.3979  21.0674  21.4866
    22.7520  23.7085

          k = 0.2222 0.3333 0.4444 (  4821 PWs)   bands (ev):

   -67.3313 -67.3216 -67.3149 -66.5346 -34.1404 -33.9059 -33.8630 -33.3089
   -33.2909 -33.2827 -33.1559 -33.1517 -33.1276 -32.6537 -32.6446 -32.6415
     1.8298  10.2859  10.7143  11.3584  14.7241  15.8576  16.2695  16.8392
    17.0112  17.0615  17.3093  17.5576  17.8463  18.4196  18.5340  18.7267
    19.4684  19.7477  19.9629  20.0615  20.3216  20.4547  20.7326  21.6901
    22.3548  23.6888

          k = 0.2222 0.4444 0.4444 (  4807 PWs)   bands (ev):

   -67.3266 -67.3220 -67.3191 -66.5347 -34.1564 -33.9020 -33.8487 -33.3209
   -33.2947 -33.2940 -33.1504 -33.1502 -33.1164 -32.6507 -32.6422 -32.6417
     1.9964  10.2485  10.2526  11.2854  14.9454  16.0846  16.1709  16.6787
    17.2039  17.2405  17.3390  17.7458  17.8437  18.1956  18.3677  18.7282
    19.6946  19.7354  19.8895  19.9603  20.2306  20.6468  20.8154  21.6142
    21.8570  23.8910

          k = 0.3333 0.3333 0.3333 (  4821 PWs)   bands (ev):

   -67.3326 -67.3176 -67.3176 -66.5346 -34.1565 -33.8766 -33.8766 -33.3055
   -33.3055 -33.2996 -33.1401 -33.1401 -33.1330 -32.6538 -32.6398 -32.6398
     1.9016  10.6415  10.6415  10.7356  14.6302  16.0848  16.4473  16.4473
    17.0964  17.0964  17.5108  17.7477  17.7477  18.4508  18.5263  18.5263
    19.5070  19.8519  19.8519  20.2900  20.3766  20.3766  21.3681  21.3681
    22.9696  22.9696

          k = 0.3333 0.3333 0.4444 (  4820 PWs)   bands (ev):

   -67.3285 -67.3216 -67.3176 -66.5347 -34.1732 -33.8759 -33.8589 -33.3182
   -33.3142 -33.3072 -33.1374 -33.1310 -33.1253 -32.6483 -32.6404 -32.6384
     2.0698  10.2056  10.5724  10.6660  14.8553  16.0361  16.2884  16.6336
    17.3161  17.3332  17.5115  17.7321  17.8247  18.2902  18.4220  18.5180
    19.6673  19.9047  20.0208  20.2104  20.3911  20.4087  20.7766  21.7181
    22.3428  23.1538

          k = 0.3333 0.4444 0.4444 (  4807 PWs)   bands (ev):

   -67.3253 -67.3219 -67.3204 -66.5346 -34.1912 -33.8674 -33.8485 -33.3297
   -33.3212 -33.3203 -33.1282 -33.1278 -33.1163 -32.6431 -32.6380 -32.6378
     2.2413  10.1496  10.1591  10.5582  14.9342  16.1695  16.2831  16.4804
    17.5933  17.6002  17.6679  17.8606  17.8670  18.1339  18.3009  18.4933
    19.8644  19.9517  20.0422  20.1418  20.4204  20.4858  20.7233  21.2319
    22.3668  23.1203

          k = 0.4444 0.4444 0.4444 (  4788 PWs)   bands (ev):

   -67.3237 -67.3219 -67.3219 -66.5346 -34.2103 -33.8484 -33.8484 -33.3355
   -33.3355 -33.3344 -33.1167 -33.1167 -33.1158 -32.6376 -32.6355 -32.6355
     2.4170  10.0874  10.0874  10.1100  14.9161  16.2396  16.3309  16.3309
    17.8954  17.8954  17.9817  17.9817  17.9861  18.0027  18.3673  18.3673
    20.0137  20.0716  20.0716  20.2608  20.3451  20.3451  20.7356  20.7356
    22.6695  22.6695

     the Fermi energy is    18.7327 ev

!    total energy              =   -1345.16628492 Ry
     Harris-Foulkes estimate   =   -1345.16628492 Ry
     estimated scf accuracy    <          3.8E-09 Ry

     total all-electron energy =    -10291.767920 Ry

     The total energy is the sum of the following terms:

     one-electron contribution =    -446.73289021 Ry
     hartree contribution      =     269.20178003 Ry
     xc contribution           =    -117.08821441 Ry
     ewald contribution        =    -711.61403732 Ry
     one-center paw contrib.   =    -338.93301265 Ry
     smearing contrib. (-TS)   =       0.00008963 Ry

     total magnetization       =     7.68 Bohr mag/cell
     absolute magnetization    =     8.03 Bohr mag/cell

     convergence has been achieved in  26 iterations

     Forces acting on atoms (Ry/au):


     negative rho (up, down):  0.000E+00 3.371E-04
     atom    1 type  1   force =     0.00000000    0.00000000    0.00000000
     atom    2 type  1   force =     0.00000000    0.00000000    0.00000000
     atom    3 type  1   force =     0.00000000    0.00000000    0.00000000
     atom    4 type  1   force =     0.00000000    0.00000000    0.00000000
     atom    5 type  2   force =     0.00000000    0.00000000    0.00000000

     Total force =     0.000000     Total SCF correction =     0.000000


     entering subroutine stress ...


     negative rho (up, down):  0.000E+00 3.371E-04
          total   stress  (Ry/bohr**3)                   (kbar)     P=  142.17
   0.00096642   0.00000000   0.00000000        142.17      0.00      0.00
   0.00000000   0.00096642   0.00000000          0.00    142.17      0.00
   0.00000000   0.00000000   0.00096642          0.00      0.00    142.17


     Writing output data file config.save
 
     init_run     :      3.22s CPU      3.36s WALL (       1 calls)
     electrons    :    195.41s CPU    200.13s WALL (       1 calls)
     forces       :      0.64s CPU      0.64s WALL (       1 calls)
     stress       :      1.71s CPU      1.71s WALL (       1 calls)

     Called by init_run:
     wfcinit      :      2.29s CPU      2.35s WALL (       1 calls)
     potinit      :      0.45s CPU      0.49s WALL (       1 calls)

     Called by electrons:
     c_bands      :    153.43s CPU    157.03s WALL (      26 calls)
     sum_band     :     28.92s CPU     29.48s WALL (      26 calls)
     v_of_rho     :      1.01s CPU      1.03s WALL (      27 calls)
     newd         :      1.50s CPU      1.54s WALL (      27 calls)
     mix_rho      :      0.30s CPU      0.30s WALL (      26 calls)

     Called by c_bands:
     init_us_2    :      2.39s CPU      2.45s WALL (    3850 calls)
     cegterg      :    144.01s CPU    147.38s WALL (    1820 calls)

     Called by sum_band:
     sum_band:bec :      0.06s CPU      0.07s WALL (    1820 calls)
     addusdens    :      3.87s CPU      3.88s WALL (      26 calls)

     Called by *egterg:
     h_psi        :     97.34s CPU     99.82s WALL (    6247 calls)
     s_psi        :      3.57s CPU      3.66s WALL (    6247 calls)
     g_psi        :      0.77s CPU      0.79s WALL (    4357 calls)
     cdiaghg      :     18.22s CPU     18.55s WALL (    6177 calls)

     Called by h_psi:
     add_vuspsi   :      3.52s CPU      3.61s WALL (    6247 calls)

     General routines
     calbec       :      6.87s CPU      7.08s WALL (    8417 calls)
     fft          :      0.59s CPU      0.59s WALL (     871 calls)
     ffts         :      0.04s CPU      0.04s WALL (     106 calls)
     fftw         :     88.96s CPU     91.05s WALL (  437400 calls)
     interpolate  :      0.14s CPU      0.14s WALL (     106 calls)
     davcio       :      0.07s CPU      0.26s WALL (      70 calls)
 
     Parallel routines
     fft_scatter  :     31.59s CPU     32.68s WALL (  438377 calls)

     PAW routines
     PAW_pot      :     10.56s CPU     11.03s WALL (      27 calls)
     PAW_symme    :      0.04s CPU      0.04s WALL (      53 calls)
 
     PWSCF        :  3m21.57s CPU     3m26.83s WALL

 
   This run was terminated on:  22:50: 7  26Oct2020            

=------------------------------------------------------------------------------=
   JOB DONE.
=------------------------------------------------------------------------------=
