
     Program PWSCF v.5.2.0 starts on 26Oct2020 at 22:52:19 

     This program is part of the open-source Quantum ESPRESSO suite
     for quantum simulation of materials; please cite
         "P. Giannozzi et al., J. Phys.:Condens. Matter 21 395502 (2009);
          URL http://www.quantum-espresso.org", 
     in publications or presentations arising from this work. More details at
     http://www.quantum-espresso.org/quote

     Parallel version (MPI), running on     6 processors
     R & G space division:  proc/nbgrp/npool/nimage =       6
     Reading input from 5.in

     Current dimensions of program PWSCF are:
     Max number of different atomic species (ntypx) = 10
     Max number of k-points (npk) =  40000
     Max angular momentum in pseudopotentials (lmaxx) =  3

     IMPORTANT: XC functional enforced from input :
     Exchange-correlation      = PBE ( 1  4  3  4 0 0)
     Any further DFT definition will be discarded
     Please, verify this is what you really want

               file Fe_PSEUDO: wavefunction(s)  3P 3D renormalized
               file N_PSEUDO: wavefunction(s)  2S renormalized

     Subspace diagonalization in iterative solution of the eigenvalue problem:
     a serial algorithm will be used

 
     Parallelization info
     --------------------
     sticks:   dense  smooth     PW     G-vecs:    dense   smooth      PW
     Min         384     256     72                13824     7514    1155
     Max         385     257     73                13827     7529    1156
     Sum        2305    1541    437                82951    45145    6931
 
     Generating pointlists ...
     new r_m :   0.2063 (alat units)  1.4318 (a.u.) for type    1
     new r_m :   0.2063 (alat units)  1.4318 (a.u.) for type    2


     bravais-lattice index     =            0
     lattice parameter (alat)  =       6.9422  a.u.
     unit-cell volume          =     334.5777 (a.u.)^3
     number of atoms/cell      =            5
     number of atomic types    =            2
     number of electrons       =        69.00
     number of Kohn-Sham states=           42
     kinetic-energy cutoff     =     100.0000  Ry
     charge density cutoff     =     600.0000  Ry
     convergence threshold     =      1.0E-08
     mixing beta               =       0.7000
     number of iterations used =            8  plain     mixing
     Exchange-correlation      = PBE ( 1  4  3  4 0 0)

     celldm(1)=   6.942230  celldm(2)=   0.000000  celldm(3)=   0.000000
     celldm(4)=   0.000000  celldm(5)=   0.000000  celldm(6)=   0.000000

     crystal axes: (cart. coord. in units of alat)
               a(1) = (   1.000000   0.000000   0.000000 )  
               a(2) = (   0.000000   1.000000   0.000000 )  
               a(3) = (   0.000000   0.000000   1.000000 )  

     reciprocal axes: (cart. coord. in units 2 pi/alat)
               b(1) = (  1.000000  0.000000  0.000000 )  
               b(2) = (  0.000000  1.000000  0.000000 )  
               b(3) = (  0.000000  0.000000  1.000000 )  


     PseudoPot. # 1 for Fe read from file:
     pseudo/Fe_PSEUDO
     MD5 check sum: e30d5f36a6f0cb983ee41abee56170da
     Pseudo is Projector augmented-wave + core cor, Zval = 16.0
     Generated using "atomic" code by A. Dal Corso  v.6.3
     Shape of augmentation charge: PSQ
     Using radial grid of 1191 points,  6 beta functions with: 
                l(1) =   0
                l(2) =   0
                l(3) =   1
                l(4) =   1
                l(5) =   2
                l(6) =   2
     Q(r) pseudized with 0 coefficients 


     PseudoPot. # 2 for  N read from file:
     pseudo/N_PSEUDO
     MD5 check sum: 14c48229446f9f2d411169a3abcbc3fa
     Pseudo is Projector augmented-wave + core cor, Zval =  5.0
     Generated using "atomic" code by A. Dal Corso  v.6.3
     Shape of augmentation charge: PSQ
     Using radial grid of 1085 points,  4 beta functions with: 
                l(1) =   0
                l(2) =   0
                l(3) =   1
                l(4) =   1
     Q(r) pseudized with 0 coefficients 


     atomic species   valence    mass     pseudopotential
        Fe            16.00    55.84500     Fe( 1.00)
        N              5.00    14.00650      N( 1.00)

     Starting magnetic structure 
     atomic species   magnetization
        Fe           0.500
        N           -0.010

     48 Sym. Ops., with inversion, found



   Cartesian axes

     site n.     atom                  positions (alat units)
         1           Fe  tau(   1) = (   0.0000000   0.5000000   0.5000000  )
         2           Fe  tau(   2) = (   0.5000000   0.5000000   0.0000000  )
         3           Fe  tau(   3) = (   0.5000000   0.0000000   0.5000000  )
         4           Fe  tau(   4) = (   0.0000000   0.0000000   0.0000000  )
         5           N   tau(   5) = (   0.5000000   0.5000000   0.5000000  )

     number of k points=    70  Marzari-Vanderbilt smearing, width (Ry)=  0.0050
                       cart. coord. in units 2pi/alat
        k(    1) = (   0.0000000   0.0000000   0.0000000), wk =   0.0013717
        k(    2) = (   0.0000000   0.0000000   0.1111111), wk =   0.0082305
        k(    3) = (   0.0000000   0.0000000   0.2222222), wk =   0.0082305
        k(    4) = (   0.0000000   0.0000000   0.3333333), wk =   0.0082305
        k(    5) = (   0.0000000   0.0000000   0.4444444), wk =   0.0082305
        k(    6) = (   0.0000000   0.1111111   0.1111111), wk =   0.0164609
        k(    7) = (   0.0000000   0.1111111   0.2222222), wk =   0.0329218
        k(    8) = (   0.0000000   0.1111111   0.3333333), wk =   0.0329218
        k(    9) = (   0.0000000   0.1111111   0.4444444), wk =   0.0329218
        k(   10) = (   0.0000000   0.2222222   0.2222222), wk =   0.0164609
        k(   11) = (   0.0000000   0.2222222   0.3333333), wk =   0.0329218
        k(   12) = (   0.0000000   0.2222222   0.4444444), wk =   0.0329218
        k(   13) = (   0.0000000   0.3333333   0.3333333), wk =   0.0164609
        k(   14) = (   0.0000000   0.3333333   0.4444444), wk =   0.0329218
        k(   15) = (   0.0000000   0.4444444   0.4444444), wk =   0.0164609
        k(   16) = (   0.1111111   0.1111111   0.1111111), wk =   0.0109739
        k(   17) = (   0.1111111   0.1111111   0.2222222), wk =   0.0329218
        k(   18) = (   0.1111111   0.1111111   0.3333333), wk =   0.0329218
        k(   19) = (   0.1111111   0.1111111   0.4444444), wk =   0.0329218
        k(   20) = (   0.1111111   0.2222222   0.2222222), wk =   0.0329218
        k(   21) = (   0.1111111   0.2222222   0.3333333), wk =   0.0658436
        k(   22) = (   0.1111111   0.2222222   0.4444444), wk =   0.0658436
        k(   23) = (   0.1111111   0.3333333   0.3333333), wk =   0.0329218
        k(   24) = (   0.1111111   0.3333333   0.4444444), wk =   0.0658436
        k(   25) = (   0.1111111   0.4444444   0.4444444), wk =   0.0329218
        k(   26) = (   0.2222222   0.2222222   0.2222222), wk =   0.0109739
        k(   27) = (   0.2222222   0.2222222   0.3333333), wk =   0.0329218
        k(   28) = (   0.2222222   0.2222222   0.4444444), wk =   0.0329218
        k(   29) = (   0.2222222   0.3333333   0.3333333), wk =   0.0329218
        k(   30) = (   0.2222222   0.3333333   0.4444444), wk =   0.0658436
        k(   31) = (   0.2222222   0.4444444   0.4444444), wk =   0.0329218
        k(   32) = (   0.3333333   0.3333333   0.3333333), wk =   0.0109739
        k(   33) = (   0.3333333   0.3333333   0.4444444), wk =   0.0329218
        k(   34) = (   0.3333333   0.4444444   0.4444444), wk =   0.0329218
        k(   35) = (   0.4444444   0.4444444   0.4444444), wk =   0.0109739
        k(   36) = (   0.0000000   0.0000000   0.0000000), wk =   0.0013717
        k(   37) = (   0.0000000   0.0000000   0.1111111), wk =   0.0082305
        k(   38) = (   0.0000000   0.0000000   0.2222222), wk =   0.0082305
        k(   39) = (   0.0000000   0.0000000   0.3333333), wk =   0.0082305
        k(   40) = (   0.0000000   0.0000000   0.4444444), wk =   0.0082305
        k(   41) = (   0.0000000   0.1111111   0.1111111), wk =   0.0164609
        k(   42) = (   0.0000000   0.1111111   0.2222222), wk =   0.0329218
        k(   43) = (   0.0000000   0.1111111   0.3333333), wk =   0.0329218
        k(   44) = (   0.0000000   0.1111111   0.4444444), wk =   0.0329218
        k(   45) = (   0.0000000   0.2222222   0.2222222), wk =   0.0164609
        k(   46) = (   0.0000000   0.2222222   0.3333333), wk =   0.0329218
        k(   47) = (   0.0000000   0.2222222   0.4444444), wk =   0.0329218
        k(   48) = (   0.0000000   0.3333333   0.3333333), wk =   0.0164609
        k(   49) = (   0.0000000   0.3333333   0.4444444), wk =   0.0329218
        k(   50) = (   0.0000000   0.4444444   0.4444444), wk =   0.0164609
        k(   51) = (   0.1111111   0.1111111   0.1111111), wk =   0.0109739
        k(   52) = (   0.1111111   0.1111111   0.2222222), wk =   0.0329218
        k(   53) = (   0.1111111   0.1111111   0.3333333), wk =   0.0329218
        k(   54) = (   0.1111111   0.1111111   0.4444444), wk =   0.0329218
        k(   55) = (   0.1111111   0.2222222   0.2222222), wk =   0.0329218
        k(   56) = (   0.1111111   0.2222222   0.3333333), wk =   0.0658436
        k(   57) = (   0.1111111   0.2222222   0.4444444), wk =   0.0658436
        k(   58) = (   0.1111111   0.3333333   0.3333333), wk =   0.0329218
        k(   59) = (   0.1111111   0.3333333   0.4444444), wk =   0.0658436
        k(   60) = (   0.1111111   0.4444444   0.4444444), wk =   0.0329218
        k(   61) = (   0.2222222   0.2222222   0.2222222), wk =   0.0109739
        k(   62) = (   0.2222222   0.2222222   0.3333333), wk =   0.0329218
        k(   63) = (   0.2222222   0.2222222   0.4444444), wk =   0.0329218
        k(   64) = (   0.2222222   0.3333333   0.3333333), wk =   0.0329218
        k(   65) = (   0.2222222   0.3333333   0.4444444), wk =   0.0658436
        k(   66) = (   0.2222222   0.4444444   0.4444444), wk =   0.0329218
        k(   67) = (   0.3333333   0.3333333   0.3333333), wk =   0.0109739
        k(   68) = (   0.3333333   0.3333333   0.4444444), wk =   0.0329218
        k(   69) = (   0.3333333   0.4444444   0.4444444), wk =   0.0329218
        k(   70) = (   0.4444444   0.4444444   0.4444444), wk =   0.0109739

     Dense  grid:    82951 G-vectors     FFT dimensions: (  60,  60,  60)

     Smooth grid:    45145 G-vectors     FFT dimensions: (  45,  45,  45)

     Largest allocated arrays     est. size (Mb)     dimensions
        Kohn-Sham Wavefunctions         0.61 Mb     (     955,   42)
        NL pseudopotentials             1.17 Mb     (     955,   80)
        Each V/rho on FFT grid          1.10 Mb     (   36000,   2)
        Each G-vector array             0.11 Mb     (   13826)
        G-vector shells                 0.00 Mb     (     606)
     Largest temporary arrays     est. size (Mb)     dimensions
        Auxiliary wavefunctions         2.45 Mb     (     955,  168)
        Each subspace H/S matrix        0.43 Mb     (     168,  168)
        Each <psi_i|beta_j> matrix      0.05 Mb     (      80,   42)
        Arrays for rho mixing           4.39 Mb     (   36000,    8)

     Check: negative/imaginary core charge=   -0.000002    0.000000

     Initial potential from superposition of free atoms

     starting charge   68.99837, renormalised to   69.00000
     Starting wfc are   44 randomized atomic wfcs
     Checking if some PAW data can be deallocated... 

     total cpu time spent up to now is        4.3 secs

     per-process dynamical memory:    78.1 Mb

     Self-consistent Calculation

     iteration #  1     ecut=   100.00 Ry     beta=0.70
     Davidson diagonalization with overlap
     ethr =  1.00E-02,  avg # of iterations =  3.1

     negative rho (up, down):  0.000E+00 6.093E-04
 
     Magnetic moment per site:
     atom:    1    charge:   12.7338    magn:    4.0975    constr:    0.0000
     atom:    2    charge:   12.7338    magn:    4.0975    constr:    0.0000
     atom:    3    charge:   12.7338    magn:    4.0975    constr:    0.0000
     atom:    4    charge:   12.6144    magn:    4.1669    constr:    0.0000
     atom:    5    charge:    4.6363    magn:    0.1184    constr:    0.0000

     total cpu time spent up to now is       13.0 secs

     total energy              =   -1344.14206106 Ry
     Harris-Foulkes estimate   =   -1343.44286052 Ry
     estimated scf accuracy    <       2.86716446 Ry

     total magnetization       =    13.87 Bohr mag/cell
     absolute magnetization    =    14.05 Bohr mag/cell

     iteration #  2     ecut=   100.00 Ry     beta=0.70
     Davidson diagonalization with overlap
     ethr =  4.16E-03,  avg # of iterations =  3.3

     negative rho (up, down):  0.000E+00 5.268E-04
 
     Magnetic moment per site:
     atom:    1    charge:   12.7248    magn:    3.8165    constr:    0.0000
     atom:    2    charge:   12.7248    magn:    3.8165    constr:    0.0000
     atom:    3    charge:   12.7248    magn:    3.8165    constr:    0.0000
     atom:    4    charge:   13.0656    magn:    3.5702    constr:    0.0000
     atom:    5    charge:    4.2265    magn:    0.0570    constr:    0.0000

     total cpu time spent up to now is       21.9 secs

     total energy              =   -1343.29831091 Ry
     Harris-Foulkes estimate   =   -1345.74604961 Ry
     estimated scf accuracy    <       8.50893266 Ry

     total magnetization       =     9.38 Bohr mag/cell
     absolute magnetization    =    10.50 Bohr mag/cell

     iteration #  3     ecut=   100.00 Ry     beta=0.70
     Davidson diagonalization with overlap
     ethr =  4.16E-03,  avg # of iterations =  3.5

     negative rho (up, down):  0.000E+00 4.059E-04
 
     Magnetic moment per site:
     atom:    1    charge:   12.8856    magn:    3.4477    constr:    0.0000
     atom:    2    charge:   12.8856    magn:    3.4477    constr:    0.0000
     atom:    3    charge:   12.8856    magn:    3.4477    constr:    0.0000
     atom:    4    charge:   12.8127    magn:    3.0178    constr:    0.0000
     atom:    5    charge:    4.0304    magn:    0.0240    constr:    0.0000

     total cpu time spent up to now is       31.2 secs

     total energy              =   -1343.61843605 Ry
     Harris-Foulkes estimate   =   -1346.18687578 Ry
     estimated scf accuracy    <      25.54074959 Ry

     total magnetization       =     3.79 Bohr mag/cell
     absolute magnetization    =     4.50 Bohr mag/cell

     iteration #  4     ecut=   100.00 Ry     beta=0.70
     Davidson diagonalization with overlap
     ethr =  4.16E-03,  avg # of iterations =  3.2

     negative rho (up, down):  0.000E+00 7.417E-04
 
     Magnetic moment per site:
     atom:    1    charge:   12.7748    magn:    2.2620    constr:    0.0000
     atom:    2    charge:   12.7748    magn:    2.2620    constr:    0.0000
     atom:    3    charge:   12.7748    magn:    2.2620    constr:    0.0000
     atom:    4    charge:   12.7289    magn:    1.8780    constr:    0.0000
     atom:    5    charge:    4.0538    magn:   -0.0486    constr:    0.0000

     total cpu time spent up to now is       39.8 secs

     total energy              =   -1345.02611972 Ry
     Harris-Foulkes estimate   =   -1345.10435027 Ry
     estimated scf accuracy    <       0.54920573 Ry

     total magnetization       =    10.75 Bohr mag/cell
     absolute magnetization    =    11.16 Bohr mag/cell

     iteration #  5     ecut=   100.00 Ry     beta=0.70
     Davidson diagonalization with overlap
     ethr =  7.96E-04,  avg # of iterations =  3.3

     negative rho (up, down):  0.000E+00 6.388E-04
 
     Magnetic moment per site:
     atom:    1    charge:   12.8337    magn:    2.1626    constr:    0.0000
     atom:    2    charge:   12.8337    magn:    2.1626    constr:    0.0000
     atom:    3    charge:   12.8337    magn:    2.1626    constr:    0.0000
     atom:    4    charge:   12.8045    magn:    2.0413    constr:    0.0000
     atom:    5    charge:    4.1106    magn:   -0.0268    constr:    0.0000

     total cpu time spent up to now is       49.5 secs

     total energy              =   -1345.11168715 Ry
     Harris-Foulkes estimate   =   -1345.19884865 Ry
     estimated scf accuracy    <       0.24065409 Ry

     total magnetization       =     9.59 Bohr mag/cell
     absolute magnetization    =     9.95 Bohr mag/cell

     iteration #  6     ecut=   100.00 Ry     beta=0.70
     Davidson diagonalization with overlap
     ethr =  3.49E-04,  avg # of iterations =  3.0

     negative rho (up, down):  0.000E+00 5.780E-04
 
     Magnetic moment per site:
     atom:    1    charge:   12.8275    magn:    2.1150    constr:    0.0000
     atom:    2    charge:   12.8275    magn:    2.1150    constr:    0.0000
     atom:    3    charge:   12.8275    magn:    2.1150    constr:    0.0000
     atom:    4    charge:   12.7935    magn:    2.3689    constr:    0.0000
     atom:    5    charge:    4.1125    magn:    0.0064    constr:    0.0000

     total cpu time spent up to now is       58.3 secs

     total energy              =   -1345.15842247 Ry
     Harris-Foulkes estimate   =   -1345.15417728 Ry
     estimated scf accuracy    <       0.02604070 Ry

     total magnetization       =     9.38 Bohr mag/cell
     absolute magnetization    =     9.72 Bohr mag/cell

     iteration #  7     ecut=   100.00 Ry     beta=0.70
     Davidson diagonalization with overlap
     ethr =  3.77E-05,  avg # of iterations =  1.7

     negative rho (up, down):  0.000E+00 5.151E-04
 
     Magnetic moment per site:
     atom:    1    charge:   12.8282    magn:    1.9573    constr:    0.0000
     atom:    2    charge:   12.8282    magn:    1.9573    constr:    0.0000
     atom:    3    charge:   12.8282    magn:    1.9573    constr:    0.0000
     atom:    4    charge:   12.7731    magn:    2.8106    constr:    0.0000
     atom:    5    charge:    4.1118    magn:    0.0392    constr:    0.0000

     total cpu time spent up to now is       65.5 secs

     total energy              =   -1345.15830090 Ry
     Harris-Foulkes estimate   =   -1345.16018057 Ry
     estimated scf accuracy    <       0.01806617 Ry

     total magnetization       =     9.38 Bohr mag/cell
     absolute magnetization    =     9.71 Bohr mag/cell

     iteration #  8     ecut=   100.00 Ry     beta=0.70
     Davidson diagonalization with overlap
     ethr =  2.62E-05,  avg # of iterations =  2.2

     negative rho (up, down):  0.000E+00 4.944E-04
 
     Magnetic moment per site:
     atom:    1    charge:   12.8313    magn:    1.8624    constr:    0.0000
     atom:    2    charge:   12.8313    magn:    1.8624    constr:    0.0000
     atom:    3    charge:   12.8313    magn:    1.8624    constr:    0.0000
     atom:    4    charge:   12.7756    magn:    2.7253    constr:    0.0000
     atom:    5    charge:    4.1097    magn:    0.0310    constr:    0.0000

     total cpu time spent up to now is       73.9 secs

     total energy              =   -1345.16333384 Ry
     Harris-Foulkes estimate   =   -1345.16235778 Ry
     estimated scf accuracy    <       0.00209426 Ry

     total magnetization       =     9.00 Bohr mag/cell
     absolute magnetization    =     9.35 Bohr mag/cell

     iteration #  9     ecut=   100.00 Ry     beta=0.70
     Davidson diagonalization with overlap
     ethr =  3.04E-06,  avg # of iterations =  2.1

     negative rho (up, down):  0.000E+00 5.596E-04
 
     Magnetic moment per site:
     atom:    1    charge:   12.8292    magn:    1.9947    constr:    0.0000
     atom:    2    charge:   12.8292    magn:    1.9947    constr:    0.0000
     atom:    3    charge:   12.8292    magn:    1.9947    constr:    0.0000
     atom:    4    charge:   12.7746    magn:    2.7581    constr:    0.0000
     atom:    5    charge:    4.1145    magn:    0.0387    constr:    0.0000

     total cpu time spent up to now is       81.5 secs

     total energy              =   -1345.16079352 Ry
     Harris-Foulkes estimate   =   -1345.16415854 Ry
     estimated scf accuracy    <       0.00202765 Ry

     total magnetization       =     8.59 Bohr mag/cell
     absolute magnetization    =     8.97 Bohr mag/cell

     iteration # 10     ecut=   100.00 Ry     beta=0.70
     Davidson diagonalization with overlap
     ethr =  2.94E-06,  avg # of iterations =  1.9

     negative rho (up, down):  0.000E+00 6.091E-04
 
     Magnetic moment per site:
     atom:    1    charge:   12.8277    magn:    2.0804    constr:    0.0000
     atom:    2    charge:   12.8277    magn:    2.0804    constr:    0.0000
     atom:    3    charge:   12.8277    magn:    2.0804    constr:    0.0000
     atom:    4    charge:   12.7756    magn:    2.7413    constr:    0.0000
     atom:    5    charge:    4.1180    magn:    0.0454    constr:    0.0000

     total cpu time spent up to now is       88.7 secs

     total energy              =   -1345.16053109 Ry
     Harris-Foulkes estimate   =   -1345.16222815 Ry
     estimated scf accuracy    <       0.00220016 Ry

     total magnetization       =     9.10 Bohr mag/cell
     absolute magnetization    =     9.44 Bohr mag/cell

     iteration # 11     ecut=   100.00 Ry     beta=0.70
     Davidson diagonalization with overlap
     ethr =  2.94E-06,  avg # of iterations =  1.7

     negative rho (up, down):  0.000E+00 4.039E-04
 
     Magnetic moment per site:
     atom:    1    charge:   12.8344    magn:    1.7230    constr:    0.0000
     atom:    2    charge:   12.8344    magn:    1.7230    constr:    0.0000
     atom:    3    charge:   12.8344    magn:    1.7230    constr:    0.0000
     atom:    4    charge:   12.7755    magn:    2.6970    constr:    0.0000
     atom:    5    charge:    4.1049    magn:    0.0142    constr:    0.0000

     total cpu time spent up to now is       96.4 secs

     total energy              =   -1345.15704212 Ry
     Harris-Foulkes estimate   =   -1345.16104227 Ry
     estimated scf accuracy    <       0.00285606 Ry

     total magnetization       =     9.33 Bohr mag/cell
     absolute magnetization    =     9.67 Bohr mag/cell

     iteration # 12     ecut=   100.00 Ry     beta=0.70
     Davidson diagonalization with overlap
     ethr =  2.94E-06,  avg # of iterations =  3.1

     negative rho (up, down):  0.000E+00 2.024E-04
 
     Magnetic moment per site:
     atom:    1    charge:   12.8419    magn:    1.3106    constr:    0.0000
     atom:    2    charge:   12.8419    magn:    1.3106    constr:    0.0000
     atom:    3    charge:   12.8419    magn:    1.3106    constr:    0.0000
     atom:    4    charge:   12.7747    magn:    2.6502    constr:    0.0000
     atom:    5    charge:    4.0885    magn:   -0.0232    constr:    0.0000

     total cpu time spent up to now is      106.0 secs

     total energy              =   -1345.15738166 Ry
     Harris-Foulkes estimate   =   -1345.16631422 Ry
     estimated scf accuracy    <       0.00121681 Ry

     total magnetization       =     8.19 Bohr mag/cell
     absolute magnetization    =     8.58 Bohr mag/cell

     iteration # 13     ecut=   100.00 Ry     beta=0.70
     Davidson diagonalization with overlap
     ethr =  1.76E-06,  avg # of iterations =  3.4

     negative rho (up, down):  0.000E+00 2.010E-04
 
     Magnetic moment per site:
     atom:    1    charge:   12.8440    magn:    1.2104    constr:    0.0000
     atom:    2    charge:   12.8440    magn:    1.2104    constr:    0.0000
     atom:    3    charge:   12.8440    magn:    1.2104    constr:    0.0000
     atom:    4    charge:   12.7747    magn:    2.6459    constr:    0.0000
     atom:    5    charge:    4.0842    magn:   -0.0330    constr:    0.0000

     total cpu time spent up to now is      117.0 secs

     total energy              =   -1345.16555417 Ry
     Harris-Foulkes estimate   =   -1345.16693409 Ry
     estimated scf accuracy    <       0.00060517 Ry

     total magnetization       =     7.21 Bohr mag/cell
     absolute magnetization    =     7.59 Bohr mag/cell

     iteration # 14     ecut=   100.00 Ry     beta=0.70
     Davidson diagonalization with overlap
     ethr =  8.77E-07,  avg # of iterations =  2.5

     negative rho (up, down):  0.000E+00 2.027E-04
 
     Magnetic moment per site:
     atom:    1    charge:   12.8429    magn:    1.2831    constr:    0.0000
     atom:    2    charge:   12.8429    magn:    1.2831    constr:    0.0000
     atom:    3    charge:   12.8429    magn:    1.2831    constr:    0.0000
     atom:    4    charge:   12.7747    magn:    2.6539    constr:    0.0000
     atom:    5    charge:    4.0861    magn:   -0.0279    constr:    0.0000

     total cpu time spent up to now is      126.0 secs

     total energy              =   -1345.16647268 Ry
     Harris-Foulkes estimate   =   -1345.16617585 Ry
     estimated scf accuracy    <       0.00131144 Ry

     total magnetization       =     6.97 Bohr mag/cell
     absolute magnetization    =     7.34 Bohr mag/cell

     iteration # 15     ecut=   100.00 Ry     beta=0.70
     Davidson diagonalization with overlap
     ethr =  8.77E-07,  avg # of iterations =  2.0

     negative rho (up, down):  0.000E+00 2.033E-04
 
     Magnetic moment per site:
     atom:    1    charge:   12.8435    magn:    1.2763    constr:    0.0000
     atom:    2    charge:   12.8435    magn:    1.2763    constr:    0.0000
     atom:    3    charge:   12.8435    magn:    1.2763    constr:    0.0000
     atom:    4    charge:   12.7753    magn:    2.6625    constr:    0.0000
     atom:    5    charge:    4.0851    magn:   -0.0325    constr:    0.0000

     total cpu time spent up to now is      133.6 secs

     total energy              =   -1345.16684866 Ry
     Harris-Foulkes estimate   =   -1345.16680739 Ry
     estimated scf accuracy    <       0.00079010 Ry

     total magnetization       =     7.15 Bohr mag/cell
     absolute magnetization    =     7.52 Bohr mag/cell

     iteration # 16     ecut=   100.00 Ry     beta=0.70
     Davidson diagonalization with overlap
     ethr =  8.77E-07,  avg # of iterations =  1.0

     negative rho (up, down):  0.000E+00 2.596E-04
 
     Magnetic moment per site:
     atom:    1    charge:   12.8394    magn:    1.4878    constr:    0.0000
     atom:    2    charge:   12.8394    magn:    1.4878    constr:    0.0000
     atom:    3    charge:   12.8394    magn:    1.4878    constr:    0.0000
     atom:    4    charge:   12.7748    magn:    2.6910    constr:    0.0000
     atom:    5    charge:    4.0908    magn:   -0.0204    constr:    0.0000

     total cpu time spent up to now is      140.5 secs

     total energy              =   -1345.16449302 Ry
     Harris-Foulkes estimate   =   -1345.16686394 Ry
     estimated scf accuracy    <       0.00084277 Ry

     total magnetization       =     7.15 Bohr mag/cell
     absolute magnetization    =     7.51 Bohr mag/cell

     iteration # 17     ecut=   100.00 Ry     beta=0.70
     Davidson diagonalization with overlap
     ethr =  8.77E-07,  avg # of iterations =  3.1

     negative rho (up, down):  0.000E+00 2.673E-04
 
     Magnetic moment per site:
     atom:    1    charge:   12.8390    magn:    1.5023    constr:    0.0000
     atom:    2    charge:   12.8390    magn:    1.5023    constr:    0.0000
     atom:    3    charge:   12.8390    magn:    1.5023    constr:    0.0000
     atom:    4    charge:   12.7748    magn:    2.6869    constr:    0.0000
     atom:    5    charge:    4.0918    magn:   -0.0177    constr:    0.0000

     total cpu time spent up to now is      150.7 secs

     total energy              =   -1345.16737860 Ry
     Harris-Foulkes estimate   =   -1345.16741202 Ry
     estimated scf accuracy    <       0.00099482 Ry

     total magnetization       =     7.71 Bohr mag/cell
     absolute magnetization    =     8.06 Bohr mag/cell

     iteration # 18     ecut=   100.00 Ry     beta=0.70
     Davidson diagonalization with overlap
     ethr =  8.77E-07,  avg # of iterations =  1.0

     negative rho (up, down):  0.000E+00 2.888E-04
 
     Magnetic moment per site:
     atom:    1    charge:   12.8369    magn:    1.5463    constr:    0.0000
     atom:    2    charge:   12.8369    magn:    1.5463    constr:    0.0000
     atom:    3    charge:   12.8369    magn:    1.5463    constr:    0.0000
     atom:    4    charge:   12.7743    magn:    2.6676    constr:    0.0000
     atom:    5    charge:    4.0961    magn:   -0.0048    constr:    0.0000

     total cpu time spent up to now is      158.2 secs

     total energy              =   -1345.16719526 Ry
     Harris-Foulkes estimate   =   -1345.16739377 Ry
     estimated scf accuracy    <       0.00074234 Ry

     total magnetization       =     7.75 Bohr mag/cell
     absolute magnetization    =     8.09 Bohr mag/cell

     iteration # 19     ecut=   100.00 Ry     beta=0.70
     Davidson diagonalization with overlap
     ethr =  8.77E-07,  avg # of iterations =  2.0

     negative rho (up, down):  0.000E+00 2.821E-04
 
     Magnetic moment per site:
     atom:    1    charge:   12.8371    magn:    1.5365    constr:    0.0000
     atom:    2    charge:   12.8371    magn:    1.5365    constr:    0.0000
     atom:    3    charge:   12.8371    magn:    1.5365    constr:    0.0000
     atom:    4    charge:   12.7743    magn:    2.6670    constr:    0.0000
     atom:    5    charge:    4.0958    magn:   -0.0053    constr:    0.0000

     total cpu time spent up to now is      165.8 secs

     total energy              =   -1345.16738976 Ry
     Harris-Foulkes estimate   =   -1345.16736534 Ry
     estimated scf accuracy    <       0.00013256 Ry

     total magnetization       =     7.83 Bohr mag/cell
     absolute magnetization    =     8.18 Bohr mag/cell

     iteration # 20     ecut=   100.00 Ry     beta=0.70
     Davidson diagonalization with overlap
     ethr =  1.92E-07,  avg # of iterations =  1.0

     negative rho (up, down):  0.000E+00 2.496E-04
 
     Magnetic moment per site:
     atom:    1    charge:   12.8374    magn:    1.4843    constr:    0.0000
     atom:    2    charge:   12.8374    magn:    1.4843    constr:    0.0000
     atom:    3    charge:   12.8374    magn:    1.4843    constr:    0.0000
     atom:    4    charge:   12.7740    magn:    2.6514    constr:    0.0000
     atom:    5    charge:    4.0954    magn:   -0.0033    constr:    0.0000

     total cpu time spent up to now is      172.6 secs

     total energy              =   -1345.16727220 Ry
     Harris-Foulkes estimate   =   -1345.16739721 Ry
     estimated scf accuracy    <       0.00011321 Ry

     total magnetization       =     7.81 Bohr mag/cell
     absolute magnetization    =     8.16 Bohr mag/cell

     iteration # 21     ecut=   100.00 Ry     beta=0.70
     Davidson diagonalization with overlap
     ethr =  1.64E-07,  avg # of iterations =  2.9

     negative rho (up, down):  0.000E+00 2.501E-04
 
     Magnetic moment per site:
     atom:    1    charge:   12.8375    magn:    1.4846    constr:    0.0000
     atom:    2    charge:   12.8375    magn:    1.4846    constr:    0.0000
     atom:    3    charge:   12.8375    magn:    1.4846    constr:    0.0000
     atom:    4    charge:   12.7741    magn:    2.6525    constr:    0.0000
     atom:    5    charge:    4.0954    magn:   -0.0039    constr:    0.0000

     total cpu time spent up to now is      181.8 secs

     total energy              =   -1345.16747093 Ry
     Harris-Foulkes estimate   =   -1345.16747004 Ry
     estimated scf accuracy    <       0.00000680 Ry

     total magnetization       =     7.67 Bohr mag/cell
     absolute magnetization    =     8.02 Bohr mag/cell

     iteration # 22     ecut=   100.00 Ry     beta=0.70
     Davidson diagonalization with overlap
     ethr =  9.86E-09,  avg # of iterations =  1.8

     negative rho (up, down):  0.000E+00 2.518E-04
 
     Magnetic moment per site:
     atom:    1    charge:   12.8378    magn:    1.4860    constr:    0.0000
     atom:    2    charge:   12.8378    magn:    1.4860    constr:    0.0000
     atom:    3    charge:   12.8378    magn:    1.4860    constr:    0.0000
     atom:    4    charge:   12.7743    magn:    2.6540    constr:    0.0000
     atom:    5    charge:    4.0952    magn:   -0.0043    constr:    0.0000

     total cpu time spent up to now is      189.7 secs

     total energy              =   -1345.16747096 Ry
     Harris-Foulkes estimate   =   -1345.16747135 Ry
     estimated scf accuracy    <       0.00000426 Ry

     total magnetization       =     7.67 Bohr mag/cell
     absolute magnetization    =     8.03 Bohr mag/cell

     iteration # 23     ecut=   100.00 Ry     beta=0.70
     Davidson diagonalization with overlap
     ethr =  6.17E-09,  avg # of iterations =  2.2

     negative rho (up, down):  0.000E+00 2.526E-04
 
     Magnetic moment per site:
     atom:    1    charge:   12.8378    magn:    1.4875    constr:    0.0000
     atom:    2    charge:   12.8378    magn:    1.4875    constr:    0.0000
     atom:    3    charge:   12.8378    magn:    1.4875    constr:    0.0000
     atom:    4    charge:   12.7743    magn:    2.6538    constr:    0.0000
     atom:    5    charge:    4.0953    magn:   -0.0039    constr:    0.0000

     total cpu time spent up to now is      197.4 secs

     total energy              =   -1345.16747210 Ry
     Harris-Foulkes estimate   =   -1345.16747220 Ry
     estimated scf accuracy    <       0.00000050 Ry

     total magnetization       =     7.68 Bohr mag/cell
     absolute magnetization    =     8.03 Bohr mag/cell

     iteration # 24     ecut=   100.00 Ry     beta=0.70
     Davidson diagonalization with overlap
     ethr =  7.21E-10,  avg # of iterations =  2.5

     negative rho (up, down):  0.000E+00 2.523E-04
 
     Magnetic moment per site:
     atom:    1    charge:   12.8377    magn:    1.4875    constr:    0.0000
     atom:    2    charge:   12.8377    magn:    1.4875    constr:    0.0000
     atom:    3    charge:   12.8377    magn:    1.4875    constr:    0.0000
     atom:    4    charge:   12.7742    magn:    2.6540    constr:    0.0000
     atom:    5    charge:    4.0953    magn:   -0.0038    constr:    0.0000

     total cpu time spent up to now is      205.2 secs

     total energy              =   -1345.16747234 Ry
     Harris-Foulkes estimate   =   -1345.16747235 Ry
     estimated scf accuracy    <       0.00000005 Ry

     total magnetization       =     7.68 Bohr mag/cell
     absolute magnetization    =     8.03 Bohr mag/cell

     iteration # 25     ecut=   100.00 Ry     beta=0.70
     Davidson diagonalization with overlap
     ethr =  6.68E-11,  avg # of iterations =  2.5

     negative rho (up, down):  0.000E+00 2.526E-04
 
     Magnetic moment per site:
     atom:    1    charge:   12.8377    magn:    1.4881    constr:    0.0000
     atom:    2    charge:   12.8377    magn:    1.4881    constr:    0.0000
     atom:    3    charge:   12.8377    magn:    1.4881    constr:    0.0000
     atom:    4    charge:   12.7742    magn:    2.6539    constr:    0.0000
     atom:    5    charge:    4.0953    magn:   -0.0037    constr:    0.0000

     total cpu time spent up to now is      214.5 secs

     total energy              =   -1345.16747233 Ry
     Harris-Foulkes estimate   =   -1345.16747237 Ry
     estimated scf accuracy    <       0.00000017 Ry

     total magnetization       =     7.68 Bohr mag/cell
     absolute magnetization    =     8.03 Bohr mag/cell

     iteration # 26     ecut=   100.00 Ry     beta=0.70
     Davidson diagonalization with overlap
     ethr =  6.68E-11,  avg # of iterations =  2.4

     negative rho (up, down):  0.000E+00 2.526E-04
 
     Magnetic moment per site:
     atom:    1    charge:   12.8377    magn:    1.4881    constr:    0.0000
     atom:    2    charge:   12.8377    magn:    1.4881    constr:    0.0000
     atom:    3    charge:   12.8377    magn:    1.4881    constr:    0.0000
     atom:    4    charge:   12.7743    magn:    2.6539    constr:    0.0000
     atom:    5    charge:    4.0954    magn:   -0.0036    constr:    0.0000

     total cpu time spent up to now is      222.4 secs

     End of self-consistent calculation

 ------ SPIN UP ------------


          k = 0.0000 0.0000 0.0000 (  5695 PWs)   bands (ev):

   -69.9372 -69.2604 -69.2060 -69.2060 -35.9979 -35.9979 -35.9979 -35.6163
   -35.6163 -35.6163 -35.1590 -35.1590 -35.1590 -35.1523 -35.1523 -35.1523
     0.3458  11.4282  13.3306  13.3306  13.3306  13.8398  13.8398  14.1051
    14.1051  14.1051  16.0924  16.0924  16.0924  17.1983  17.1983  17.8462
    17.8462  18.3983  18.3983  18.3983  18.4659  18.4659  18.4659  18.4676
    21.8872  23.7555

          k = 0.0000 0.0000 0.1111 (  5618 PWs)   bands (ev):

   -69.9371 -69.2590 -69.2075 -69.2060 -35.9969 -35.9969 -35.9966 -35.6151
   -35.6151 -35.6141 -35.1600 -35.1600 -35.1593 -35.1572 -35.1536 -35.1536
     0.4155  11.4856  12.9274  13.1106  13.1106  13.9191  13.9307  14.1574
    14.3442  14.3442  16.0278  16.1464  16.1464  17.2214  17.2573  17.8147
    17.8701  18.3139  18.3139  18.3982  18.3982  18.3985  18.4065  18.4648
    21.9633  23.2365

          k = 0.0000 0.0000 0.2222 (  5662 PWs)   bands (ev):

   -69.9369 -69.2550 -69.2116 -69.2060 -35.9944 -35.9944 -35.9931 -35.6121
   -35.6121 -35.6081 -35.1698 -35.1628 -35.1628 -35.1600 -35.1564 -35.1564
     0.6005  11.3380  12.5044  12.7674  12.7674  14.0813  14.1356  14.3090
    14.7510  14.7510  15.8450  16.2724  16.2724  17.1945  17.2857  17.7245
    17.7687  17.9543  17.9543  18.2395  18.3988  18.4016  18.4016  18.4621
    22.1772  22.5171

          k = 0.0000 0.0000 0.3333 (  5622 PWs)   bands (ev):

   -69.9366 -69.2493 -69.2176 -69.2059 -35.9916 -35.9916 -35.9892 -35.6086
   -35.6086 -35.6006 -35.1847 -35.1665 -35.1665 -35.1608 -35.1593 -35.1593
     0.8284  10.6699  12.4975  12.4975  12.8460  14.1977  14.4176  14.5423
    15.1428  15.1428  15.5762  16.3649  16.3649  16.9840  17.3213  17.3613
    17.5815  17.5815  17.6127  18.0173  18.3993  18.4146  18.4146  18.4593
    22.0442  22.5715

          k = 0.0000 0.0000 0.4444 (  5634 PWs)   bands (ev):

   -69.9364 -69.2440 -69.2231 -69.2059 -35.9897 -35.9897 -35.9867 -35.6063
   -35.6063 -35.5953 -35.1949 -35.1692 -35.1692 -35.1614 -35.1609 -35.1609
     0.9892  10.1831  12.3532  12.3532  13.4007  14.1248  14.6320  14.8079
    15.2875  15.4349  15.4349  16.3338  16.3338  16.7325  16.9438  17.3458
    17.3743  17.3743  17.6402  17.8046  18.3995  18.4299  18.4299  18.4576
    21.9108  22.7892

          k = 0.0000 0.1111 0.1111 (  5627 PWs)   bands (ev):

   -69.9370 -69.2576 -69.2082 -69.2067 -35.9973 -35.9960 -35.9943 -35.6263
   -35.6139 -35.5998 -35.1703 -35.1610 -35.1605 -35.1573 -35.1548 -35.1485
     0.4853  11.5395  12.6988  12.8570  12.9540  13.9963  14.0041  14.2125
    14.4871  14.5136  16.0041  16.1630  16.1928  17.2489  17.2728  17.7260
    17.7833  18.2262  18.2640  18.3181  18.3245  18.4102  18.4791  18.5426
    22.0239  23.4383

          k = 0.0000 0.1111 0.2222 (  5648 PWs)   bands (ev):

   -69.9368 -69.2538 -69.2119 -69.2070 -35.9958 -35.9936 -35.9910 -35.6338
   -35.6107 -35.5838 -35.1857 -35.1655 -35.1637 -35.1584 -35.1579 -35.1441
     0.6706  11.3592  12.2606  12.6632  12.6766  14.1573  14.2069  14.3625
    14.8144  14.8590  15.8419  16.2816  16.2892  17.1599  17.3234  17.4382
    17.5844  17.9115  18.1400  18.1984  18.2420  18.3839  18.5584  18.6824
    22.2025  22.6703

          k = 0.0000 0.1111 0.3333 (  5637 PWs)   bands (ev):

   -69.9365 -69.2482 -69.2177 -69.2070 -35.9930 -35.9908 -35.9884 -35.6376
   -35.6071 -35.5698 -35.2009 -35.1705 -35.1673 -35.1609 -35.1604 -35.1419
     0.8989  10.6617  12.1386  12.4163  12.9460  14.2828  14.4862  14.5914
    15.1752  15.2147  15.5805  16.2920  16.3938  16.9297  17.0977  17.2657
    17.4906  17.5576  17.8566  18.0735  18.1797  18.3775  18.6300  18.6760
    22.2617  22.4503

          k = 0.0000 0.1111 0.4444 (  5645 PWs)   bands (ev):

   -69.9363 -69.2429 -69.2232 -69.2070 -35.9905 -35.9890 -35.9874 -35.6388
   -35.6046 -35.5614 -35.2106 -35.1737 -35.1699 -35.1626 -35.1618 -35.1410
     1.0602  10.1716  12.0379  12.2808  13.4694  14.2194  14.7013  14.8577
    15.2909  15.4588  15.4815  16.1380  16.3917  16.6634  16.8640  17.2556
    17.3555  17.4656  17.7081  17.8996  18.1435  18.3755  18.6540  18.6760
    22.1430  22.6122

          k = 0.0000 0.2222 0.2222 (  5642 PWs)   bands (ev):

   -69.9366 -69.2501 -69.2136 -69.2091 -35.9960 -35.9913 -35.9889 -35.6524
   -35.6072 -35.5584 -35.2070 -35.1681 -35.1660 -35.1614 -35.1602 -35.1306
     0.8568  11.2950  11.5677  12.4410  12.7896  14.3578  14.3839  14.5052
    15.0143  15.1104  15.7600  16.2753  16.3631  17.0227  17.0278  17.3107
    17.4587  17.7427  18.0346  18.0886  18.2579  18.3350  18.7087  18.9944
    22.1160  22.9987

          k = 0.0000 0.2222 0.3333 (  5650 PWs)   bands (ev):

   -69.9363 -69.2448 -69.2182 -69.2100 -35.9946 -35.9888 -35.9882 -35.6648
   -35.6031 -35.5377 -35.2250 -35.1709 -35.1693 -35.1650 -35.1624 -35.1215
     1.0868  10.6287  11.3680  12.2334  13.1804  14.5165  14.6615  14.7165
    15.2789  15.3906  15.5583  16.0666  16.4962  16.7580  16.8085  17.1024
    17.4757  17.6359  17.8031  17.9580  18.1969  18.3521  18.8360  19.0294
    21.9457  22.8235

          k = 0.0000 0.2222 0.4444 (  5636 PWs)   bands (ev):

   -69.9362 -69.2397 -69.2232 -69.2102 -35.9923 -35.9892 -35.9871 -35.6709
   -35.6004 -35.5259 -35.2355 -35.1728 -35.1718 -35.1669 -35.1640 -35.1171
     1.2495  10.1371  11.3034  12.1148  13.6800  14.4693  14.8912  14.9681
    15.2997  15.4958  15.5996  15.8229  16.5521  16.5540  16.6114  17.0970
    17.2980  17.5289  17.8751  17.8799  18.1778  18.2116  18.9127  18.9631
    21.9128  22.7457

          k = 0.0000 0.3333 0.3333 (  5646 PWs)   bands (ev):

   -69.9362 -69.2399 -69.2198 -69.2134 -35.9950 -35.9895 -35.9865 -35.6842
   -35.5985 -35.5124 -35.2446 -35.1717 -35.1709 -35.1695 -35.1650 -35.1067
     1.3192  10.5585  10.5961  12.0539  13.5743  14.8386  14.8438  14.8885
    15.4140  15.4606  15.5951  15.7409  16.5552  16.6483  16.6582  16.8993
    17.3285  17.6094  17.7584  17.9055  18.0438  18.5480  19.0046  19.1747
    21.2663  23.3556

          k = 0.0000 0.3333 0.4444 (  5634 PWs)   bands (ev):

   -69.9360 -69.2348 -69.2234 -69.2150 -35.9940 -35.9917 -35.9850 -35.6943
   -35.5955 -35.4983 -35.2555 -35.1740 -35.1719 -35.1709 -35.1667 -35.0990
     1.4842  10.0902  10.5353  11.9486  14.0226  14.7994  15.0853  15.1287
    15.2957  15.5100  15.5586  15.7465  16.4018  16.4743  16.7782  16.8322
    17.2035  17.4001  17.6211  17.9741  18.1740  18.5811  19.1032  19.1300
    20.9081  23.4489

          k = 0.0000 0.4444 0.4444 (  5650 PWs)   bands (ev):

   -69.9359 -69.2293 -69.2239 -69.2201 -35.9946 -35.9938 -35.9836 -35.7066
   -35.5922 -35.4831 -35.2664 -35.1755 -35.1752 -35.1695 -35.1686 -35.0894
     1.6511  10.0560  10.0565  11.8499  14.3684  15.0251  15.1863  15.2541
    15.2594  15.4093  15.5749  15.8591  16.3141  16.3958  16.5776  16.9874
    17.1142  17.2350  17.4098  17.8577  18.3840  18.9445  19.1753  19.2133
    20.1307  23.9983

          k = 0.1111 0.1111 0.1111 (  5644 PWs)   bands (ev):

   -69.9370 -69.2563 -69.2081 -69.2081 -35.9966 -35.9966 -35.9920 -35.6384
   -35.5987 -35.5987 -35.1733 -35.1696 -35.1696 -35.1506 -35.1487 -35.1487
     0.5551  11.5896  12.5639  12.5639  12.8357  14.0721  14.0721  14.3898
    14.3898  14.7343  15.9888  16.2025  16.2025  17.2670  17.2670  17.6644
    17.6644  17.9913  18.1235  18.3443  18.3443  18.4200  18.6410  18.6410
    22.0741  23.5629

          k = 0.1111 0.1111 0.2222 (  5647 PWs)   bands (ev):

   -69.9367 -69.2525 -69.2121 -69.2081 -35.9956 -35.9948 -35.9888 -35.6506
   -35.5958 -35.5783 -35.1899 -35.1800 -35.1713 -35.1508 -35.1458 -35.1436
     0.7408  11.3712  12.1433  12.2981  12.7589  14.2327  14.2779  14.4627
    14.7623  15.0134  15.8445  16.2851  16.2956  17.1765  17.2940  17.3841
    17.4083  17.7637  17.9271  18.2177  18.3454  18.3565  18.8021  18.8329
    22.2207  22.8350

          k = 0.1111 0.1111 0.3333 (  5648 PWs)   bands (ev):

   -69.9365 -69.2471 -69.2178 -69.2081 -35.9928 -35.9927 -35.9869 -35.6581
   -35.5924 -35.5608 -35.2062 -35.1886 -35.1724 -35.1526 -35.1465 -35.1395
     0.9697  10.6464  12.0642  12.0770  13.0384  14.3640  14.5551  14.6651
    15.1712  15.2805  15.5911  16.2784  16.3447  16.9173  17.0709  17.1116
    17.4312  17.6065  17.7043  18.0898  18.2503  18.3342  18.6813  18.9925
    22.4189  22.4435

          k = 0.1111 0.1111 0.4444 (  5642 PWs)   bands (ev):

   -69.9363 -69.2418 -69.2232 -69.2081 -35.9914 -35.9895 -35.9871 -35.6614
   -35.5902 -35.5506 -35.2162 -35.1936 -35.1730 -35.1537 -35.1480 -35.1375
     1.1315  10.1545  11.9342  12.0079  13.5366  14.3075  14.7714  14.9233
    15.3012  15.4550  15.5306  16.0761  16.2786  16.6264  16.9676  17.0972
    17.3342  17.4993  17.7094  17.9304  18.1845  18.3239  18.5241  19.0840
    22.3369  22.5622

          k = 0.1111 0.2222 0.2222 (  5639 PWs)   bands (ev):

   -69.9365 -69.2490 -69.2136 -69.2103 -35.9960 -35.9939 -35.9864 -35.6708
   -35.5866 -35.5575 -35.2080 -35.1850 -35.1816 -35.1464 -35.1455 -35.1308
     0.9276  11.2973  11.4893  12.0701  12.8957  14.4283  14.4568  14.6314
    14.9392  15.2089  15.7706  16.2700  16.3404  17.0318  17.0918  17.2146
    17.3959  17.5444  17.7223  18.2482  18.2499  18.3219  19.0778  19.1106
    22.1896  23.1066

          k = 0.1111 0.2222 0.3333 (  5649 PWs)   bands (ev):

   -69.9363 -69.2439 -69.2182 -69.2109 -35.9950 -35.9924 -35.9858 -35.6850
   -35.5821 -35.5361 -35.2253 -35.1937 -35.1837 -35.1474 -35.1442 -35.1216
     1.1583  10.5983  11.3115  11.9149  13.2658  14.5777  14.7284  14.8338
    15.2639  15.3765  15.5840  16.1026  16.3723  16.7654  16.9126  17.0318
    17.4422  17.4783  17.6147  18.1521  18.1977  18.2546  18.9968  19.3338
    22.0570  22.8862

          k = 0.1111 0.2222 0.4444 (  5646 PWs)   bands (ev):

   -69.9362 -69.2388 -69.2233 -69.2111 -35.9933 -35.9911 -35.9866 -35.6921
   -35.5796 -35.5236 -35.2354 -35.1993 -35.1841 -35.1481 -35.1442 -35.1170
     1.3218  10.1075  11.2414  11.8219  13.7359  14.5293  14.9599  15.0713
    15.3036  15.4786  15.6040  15.8651  16.2992  16.5438  16.8772  16.9677
    17.3026  17.4483  17.7965  18.0504  18.1010  18.2334  18.7430  19.4753
    22.0153  22.8357

          k = 0.1111 0.3333 0.3333 (  5636 PWs)   bands (ev):

   -69.9361 -69.2391 -69.2198 -69.2142 -35.9957 -35.9924 -35.9858 -35.7052
   -35.5766 -35.5119 -35.2436 -35.1952 -35.1924 -35.1455 -35.1441 -35.1068
     1.3920  10.5244  10.5394  11.7570  13.6362  14.8227  14.9042  15.0689
    15.3298  15.4723  15.5698  15.9051  16.3668  16.6363  16.7529  16.9588
    17.3280  17.3354  17.7955  18.0115  18.1088  18.3397  19.2236  19.4681
    21.3619  23.2564

          k = 0.1111 0.3333 0.4444 (  5645 PWs)   bands (ev):

   -69.9360 -69.2342 -69.2234 -69.2156 -35.9951 -35.9933 -35.9862 -35.7157
   -35.5737 -35.4979 -35.2538 -35.1995 -35.1936 -35.1453 -35.1441 -35.0991
     1.5581  10.0490  10.4835  11.6625  14.0411  14.7951  15.0913  15.2866
    15.2946  15.5096  15.5625  15.9175  16.2898  16.4464  16.7285  16.9212
    17.2030  17.3110  17.8568  17.9766  18.0304  18.4891  19.0172  19.6594
    20.9541  23.3825

          k = 0.1111 0.4444 0.4444 (  5651 PWs)   bands (ev):

   -69.9359 -69.2290 -69.2239 -69.2204 -35.9958 -35.9951 -35.9860 -35.7283
   -35.5704 -35.4830 -35.2640 -35.1994 -35.1989 -35.1443 -35.1441 -35.0894
     1.7263  10.0076  10.0095  11.5677  14.3233  14.9819  15.0455  15.2048
    15.5463  15.5523  15.6301  16.0535  16.2560  16.3619  16.5050  16.9239
    17.1744  17.2219  17.6748  17.9344  18.0856  18.8781  19.1705  19.7003
    20.1198  23.7364

          k = 0.2222 0.2222 0.2222 (  5641 PWs)   bands (ev):

   -69.9364 -69.2458 -69.2136 -69.2136 -35.9959 -35.9959 -35.9847 -35.6964
   -35.5551 -35.5551 -35.2156 -35.1982 -35.1982 -35.1333 -35.1333 -35.1292
     1.1160  11.2711  11.3114  11.3114  13.1134  14.6226  14.6226  14.9422
    14.9422  15.3041  15.7320  16.2796  16.2796  16.9693  16.9693  17.2825
    17.2825  17.2924  17.4273  18.2286  18.2286  18.3819  19.4147  19.4147
    22.2835  23.0623

          k = 0.2222 0.2222 0.3333 (  5647 PWs)   bands (ev):

   -69.9362 -69.2411 -69.2184 -69.2135 -35.9958 -35.9958 -35.9854 -35.7156
   -35.5524 -35.5291 -35.2296 -35.2112 -35.2009 -35.1333 -35.1255 -35.1197
     1.3494  10.5170  11.1355  11.2357  13.4789  14.7340  14.8922  15.1009
    15.2920  15.2956  15.6692  16.1481  16.2342  16.7245  16.7863  17.1818
    17.1847  17.3776  17.5207  18.1617  18.2198  18.3165  19.2419  19.7641
    22.2488  22.6938

          k = 0.2222 0.2222 0.4444 (  5653 PWs)   bands (ev):

   -69.9361 -69.2363 -69.2233 -69.2135 -35.9958 -35.9941 -35.9875 -35.7255
   -35.5506 -35.5145 -35.2386 -35.2182 -35.2012 -35.1339 -35.1222 -35.1143
     1.5151  10.0327  11.0319  11.1938  13.8848  14.6647  15.1477  15.1482
    15.4033  15.4928  15.6118  15.9867  16.1838  16.4978  16.7714  17.0065
    17.1470  17.5602  17.7233  18.0967  18.1967  18.2423  18.8110  20.0144
    22.2603  22.3758

          k = 0.2222 0.3333 0.3333 (  5672 PWs)   bands (ev):

   -69.9360 -69.2369 -69.2198 -69.2164 -35.9976 -35.9967 -35.9872 -35.7395
   -35.5399 -35.5107 -35.2415 -35.2164 -35.2130 -35.1245 -35.1230 -35.1069
     1.5868  10.4049  10.4373  11.0623  13.7834  14.8929  14.9974  15.1537
    15.4041  15.4575  15.8017  16.1026  16.2133  16.6139  16.6344  16.9618
    17.3041  17.3492  17.6462  18.1530  18.2324  18.2822  19.4027  19.9184
    21.6314  22.6893

          k = 0.2222 0.3333 0.4444 (  5665 PWs)   bands (ev):

   -69.9359 -69.2325 -69.2234 -69.2172 -35.9979 -35.9968 -35.9897 -35.7522
   -35.5366 -35.4964 -35.2498 -35.2223 -35.2143 -35.1240 -35.1191 -35.0991
     1.7560   9.9480  10.3580  10.9829  14.0724  14.8050  15.0274  15.2239
    15.4904  15.7150  15.8753  16.1619  16.1877  16.4235  16.6203  16.8037
    17.2862  17.5124  17.7756  18.1064  18.1696  18.3882  19.0268  20.2483
    21.0541  22.6440

          k = 0.2222 0.4444 0.4444 (  5661 PWs)   bands (ev):

   -69.9359 -69.2282 -69.2238 -69.2212 -35.9988 -35.9985 -35.9919 -35.7666
   -35.5322 -35.4828 -35.2581 -35.2220 -35.2213 -35.1192 -35.1189 -35.0894
     1.9282   9.8900   9.8973  10.8926  14.2096  14.8980  14.9499  15.0892
    15.6727  16.0018  16.1139  16.2022  16.2635  16.3991  16.5121  16.6594
    17.4070  17.4419  17.8215  17.9830  18.1012  18.7646  19.1471  19.9409
    20.4397  22.9021

          k = 0.3333 0.3333 0.3333 (  5674 PWs)   bands (ev):

   -69.9359 -69.2336 -69.2198 -69.2198 -35.9996 -35.9996 -35.9908 -35.7672
   -35.5093 -35.5093 -35.2426 -35.2282 -35.2282 -35.1094 -35.1094 -35.1049
     1.8298  10.2649  10.2649  10.4021  13.9571  14.9420  14.9947  14.9947
    15.6697  15.6697  16.1355  16.2179  16.2179  16.5753  16.5753  16.7366
    17.4736  17.5587  17.5587  18.2040  18.2040  18.3424  19.7538  19.7538
    21.9452  21.9452

          k = 0.3333 0.3333 0.4444 (  5670 PWs)   bands (ev):

   -69.9359 -69.2299 -69.2234 -69.2197 -36.0010 -36.0002 -35.9945 -35.7822
   -35.5083 -35.4923 -35.2476 -35.2363 -35.2296 -35.1083 -35.1016 -35.0977
     2.0039   9.8389  10.1797  10.3017  14.0868  14.8131  14.9325  15.0661
    15.7102  15.9690  16.2184  16.2971  16.3762  16.5446  16.5850  16.7067
    17.4821  17.6857  17.7214  18.2224  18.2879  18.3195  19.0865  20.2694
    21.0593  21.9462

          k = 0.3333 0.4444 0.4444 (  5669 PWs)   bands (ev):

   -69.9358 -69.2269 -69.2238 -69.2223 -36.0023 -36.0022 -35.9985 -35.7986
   -35.5001 -35.4826 -35.2515 -35.2381 -35.2374 -35.1000 -35.0997 -35.0894
     2.1821   9.7653   9.7775  10.1658  14.0871  14.8238  14.8781  14.9434
    15.8652  16.0635  16.2511  16.2630  16.4465  16.8100  16.8159  16.9891
    17.6313  17.6607  17.7497  18.2079  18.2602  18.5488  19.0742  19.6185
    20.9368  21.9308

          k = 0.4444 0.4444 0.4444 (  5673 PWs)   bands (ev):

   -69.9358 -69.2254 -69.2238 -69.2238 -36.0045 -36.0045 -36.0031 -35.8162
   -35.4824 -35.4824 -35.2480 -35.2458 -35.2458 -35.0898 -35.0898 -35.0890
     2.3655   9.6883   9.6883   9.7166  14.0122  14.7930  14.8335  14.8335
    16.0120  16.0120  16.2629  16.2629  16.3294  17.4466  17.4466  17.4749
    17.7443  17.7443  17.9042  18.3146  18.3146  18.3174  18.9398  18.9398
    21.2441  21.2441

 ------ SPIN DOWN ----------


          k = 0.0000 0.0000 0.0000 (  5695 PWs)   bands (ev):

   -67.3630 -67.3022 -67.3022 -66.5334 -33.9856 -33.9856 -33.9856 -33.2298
   -33.2298 -33.2298 -33.1911 -33.1911 -33.1911 -32.6385 -32.6385 -32.6385
     0.4467  11.7282  13.3951  13.3951  13.3951  15.2111  15.2111  15.5340
    15.5340  15.5340  18.0416  18.0416  18.0416  18.7056  18.7056  20.2822
    20.2822  20.2822  20.4086  20.4086  20.5097  20.8712  20.8712  20.8712
    23.0646  23.9616

          k = 0.0000 0.0000 0.1111 (  5618 PWs)   bands (ev):

   -67.3613 -67.3038 -67.3022 -66.5335 -33.9844 -33.9844 -33.9839 -33.2302
   -33.2288 -33.2288 -33.1922 -33.1922 -33.1914 -32.6414 -32.6397 -32.6397
     0.5157  11.7591  13.0947  13.2816  13.2816  15.2709  15.3103  15.5912
    15.6871  15.6871  17.9639  18.1040  18.1040  18.7121  18.8023  20.2365
    20.2365  20.2824  20.3482  20.3650  20.4468  20.6208  20.6208  20.8713
    23.1059  23.6083

          k = 0.0000 0.0000 0.2222 (  5662 PWs)   bands (ev):

   -67.3566 -67.3083 -67.3022 -66.5337 -33.9813 -33.9813 -33.9795 -33.2312
   -33.2262 -33.2262 -33.1950 -33.1950 -33.1923 -32.6488 -32.6428 -32.6428
     0.6984  11.5214  12.8552  13.0423  13.0423  15.3360  15.5860  15.7549
    16.0364  16.0364  17.7485  18.2777  18.2777  18.7215  18.8146  19.9892
    19.9892  20.1248  20.1432  20.2207  20.2207  20.2829  20.3770  20.8714
    23.0988  23.2976

          k = 0.0000 0.0000 0.3333 (  5622 PWs)   bands (ev):

   -67.3497 -67.3149 -67.3022 -66.5340 -33.9777 -33.9777 -33.9744 -33.2323
   -33.2233 -33.2233 -33.1982 -33.1982 -33.1933 -32.6572 -32.6463 -32.6463
     0.9228  10.8630  12.8213  12.8213  13.2723  15.2197  15.9599  15.9959
    16.4093  16.4093  17.4491  18.5186  18.5186  18.5899  18.7036  19.4689
    19.4689  19.7692  19.8267  20.0532  20.0532  20.2834  20.3220  20.8717
    22.9364  23.5449

          k = 0.0000 0.0000 0.4444 (  5634 PWs)   bands (ev):

   -67.3432 -67.3213 -67.3021 -66.5341 -33.9753 -33.9753 -33.9710 -33.2330
   -33.2215 -33.2215 -33.2002 -33.2002 -33.1939 -32.6627 -32.6486 -32.6486
     1.0807  10.3970  12.6959  12.6959  13.9352  14.7953  16.2274  16.2619
    16.6614  16.6614  17.1799  18.4160  18.6451  18.7641  18.7641  19.0536
    19.0536  19.4984  19.6041  19.9439  19.9439  20.2838  20.2859  20.8718
    22.9025  23.7488

          k = 0.0000 0.1111 0.1111 (  5627 PWs)   bands (ev):

   -67.3597 -67.3045 -67.3030 -66.5336 -33.9972 -33.9832 -33.9685 -33.2342
   -33.2277 -33.2269 -33.1968 -33.1933 -33.1858 -32.6452 -32.6409 -32.6393
     0.5846  11.7913  12.8625  13.1410  13.1805  15.3470  15.3815  15.6571
    15.8151  15.8159  17.9276  18.1268  18.1583  18.7531  18.7976  20.1523
    20.1891  20.2140  20.2578  20.3577  20.4308  20.5239  20.5317  20.7755
    23.1407  23.8589

          k = 0.0000 0.1111 0.2222 (  5648 PWs)   bands (ev):

   -67.3551 -67.3086 -67.3033 -66.5338 -34.0065 -33.9801 -33.9523 -33.2413
   -33.2251 -33.2247 -33.2001 -33.1961 -33.1807 -32.6516 -32.6440 -32.6415
     0.7675  11.5466  12.5131  12.9614  13.0789  15.4221  15.6389  15.8240
    16.1198  16.1291  17.7353  18.2833  18.2976  18.6955  18.7307  19.8205
    19.9574  19.9620  20.0881  20.2030  20.3619  20.3784  20.4824  20.7409
    23.2080  23.4021

          k = 0.0000 0.1111 0.3333 (  5637 PWs)   bands (ev):

   -67.3484 -67.3150 -67.3033 -66.5340 -34.0121 -33.9766 -33.9387 -33.2484
   -33.2222 -33.2221 -33.2024 -33.1993 -33.1774 -32.6575 -32.6476 -32.6453
     0.9922  10.8688  12.4345  12.7540  13.4037  15.3136  16.0061  16.0658
    16.4583  16.4688  17.4447  18.3450  18.4944  18.5281  18.6591  19.4842
    19.5006  19.7224  19.8943  19.9379  20.2485  20.3634  20.3849  20.7416
    23.1210  23.4641

          k = 0.0000 0.1111 0.4444 (  5645 PWs)   bands (ev):

   -67.3420 -67.3212 -67.3033 -66.5342 -34.0147 -33.9742 -33.9309 -33.2527
   -33.2204 -33.2202 -33.2037 -33.2013 -33.1759 -32.6610 -32.6499 -32.6482
     1.1505  10.3984  12.3634  12.6347  14.0103  14.9064  16.3030  16.3045
    16.6887  16.7036  17.1807  18.1827  18.3312  18.7862  18.7921  19.0855
    19.3050  19.5827  19.6178  19.8234  20.1436  20.3064  20.3652  20.7432
    23.1040  23.6002

          k = 0.0000 0.2222 0.2222 (  5642 PWs)   bands (ev):

   -67.3508 -67.3104 -67.3056 -66.5340 -34.0278 -33.9771 -33.9257 -33.2574
   -33.2248 -33.2222 -33.2039 -33.1989 -33.1662 -32.6554 -32.6472 -32.6415
     0.9510  11.4996  11.8228  12.7782  13.2522  15.6155  15.7745  15.9978
    16.3302  16.3642  17.6315  18.2679  18.3701  18.5068  18.5794  19.6843
    19.7684  19.8185  19.9195  20.0938  20.4443  20.4481  20.5162  20.6854
    23.1200  23.9541

          k = 0.0000 0.2222 0.3333 (  5650 PWs)   bands (ev):

   -67.3446 -67.3154 -67.3065 -66.5342 -34.0429 -33.9737 -33.9046 -33.2711
   -33.2246 -33.2190 -33.2081 -33.2021 -33.1550 -32.6571 -32.6509 -32.6439
     1.1767  10.8724  11.6516  12.5973  13.6641  15.5702  16.0783  16.2386
    16.5929  16.6221  17.4058  17.9802  18.2665  18.5843  18.5893  19.5189
    19.5371  19.7124  19.7457  19.8920  20.4113  20.4117  20.4844  20.6817
    23.0123  23.7353

          k = 0.0000 0.2222 0.4444 (  5636 PWs)   bands (ev):

   -67.3385 -67.3211 -67.3067 -66.5343 -34.0506 -33.9714 -33.8929 -33.2787
   -33.2234 -33.2170 -33.2119 -33.2041 -33.1491 -32.6565 -32.6533 -32.6472
     1.3360  10.3966  11.6146  12.4907  14.2188  15.2006  16.3422  16.4887
    16.7638  16.8476  17.1763  17.7086  18.1347  18.6123  18.8665  19.1784
    19.3757  19.6223  19.6732  19.8144  20.3959  20.4163  20.4759  20.5149
    23.0497  23.6581

          k = 0.0000 0.3333 0.3333 (  5646 PWs)   bands (ev):

   -67.3390 -67.3170 -67.3102 -66.5343 -34.0652 -33.9704 -33.8784 -33.2890
   -33.2270 -33.2155 -33.2153 -33.2053 -33.1373 -32.6549 -32.6547 -32.6441
     1.4043  10.8325  10.8974  12.4379  14.0760  15.8689  16.0264  16.4612
    16.7902  16.7996  17.2936  17.6321  18.0641  18.5083  18.7335  19.3592
    19.5310  19.5352  19.7318  19.9256  20.1465  20.5079  20.5142  20.8580
    22.5363  24.3143

          k = 0.0000 0.3333 0.4444 (  5634 PWs)   bands (ev):

   -67.3332 -67.3210 -67.3119 -66.5344 -34.0770 -33.9682 -33.8640 -33.2987
   -33.2272 -33.2213 -33.2132 -33.2074 -33.1278 -32.6572 -32.6514 -32.6462
     1.5651  10.3858  10.8482  12.3423  14.5574  15.6039  16.2209  16.6901
    16.8599  17.0670  17.1532  17.3665  17.9803  18.4030  18.9750  19.2079
    19.2671  19.5033  19.5854  20.0354  20.0968  20.5262  20.5919  20.7768
    22.3317  24.3176

          k = 0.0000 0.4444 0.4444 (  5650 PWs)   bands (ev):

   -67.3272 -67.3214 -67.3174 -66.5345 -34.0909 -33.9661 -33.8483 -33.3094
   -33.2295 -33.2278 -33.2107 -33.2095 -33.1161 -32.6598 -32.6477 -32.6461
     1.7274  10.3722  10.3762  12.2526  14.9231  15.9628  15.9829  16.8464
    16.9121  16.9148  17.1172  17.5512  17.9124  18.1338  19.0472  19.0625
    19.3051  19.4728  19.5340  19.7158  20.2635  20.5389  20.7790  20.8781
    21.8704  24.8274

          k = 0.1111 0.1111 0.1111 (  5644 PWs)   bands (ev):

   -67.3581 -67.3045 -67.3045 -66.5337 -34.0105 -33.9674 -33.9674 -33.2351
   -33.2299 -33.2299 -33.1947 -33.1947 -33.1820 -32.6489 -32.6402 -32.6402
     0.6536  11.8242  12.7775  12.7775  13.1939  15.4351  15.4351  15.7983
    15.7983  15.9803  17.8998  18.1713  18.1713  18.7714  18.7714  20.0062
    20.1171  20.1426  20.1426  20.4011  20.4011  20.4025  20.6838  20.6838
    23.1821  24.0631

          k = 0.1111 0.1111 0.2222 (  5647 PWs)   bands (ev):

   -67.3536 -67.3088 -67.3045 -66.5339 -34.0248 -33.9645 -33.9466 -33.2426
   -33.2371 -33.2279 -33.1946 -33.1919 -33.1763 -32.6547 -32.6426 -32.6420
     0.8367  11.5666  12.4040  12.5865  13.2020  15.5075  15.6961  15.9218
    16.1323  16.2328  17.7290  18.2751  18.2900  18.6810  18.6811  19.6479
    19.7888  19.9253  19.9931  20.2993  20.4497  20.4719  20.5387  20.7279
    23.2594  23.5531

          k = 0.1111 0.1111 0.3333 (  5648 PWs)   bands (ev):

   -67.3471 -67.3151 -67.3045 -66.5341 -34.0345 -33.9613 -33.9294 -33.2507
   -33.2448 -33.2232 -33.1929 -33.1916 -33.1720 -32.6587 -32.6466 -32.6452
     1.0619  10.8685  12.3702  12.3994  13.5160  15.4063  16.0635  16.1452
    16.4751  16.5172  17.4475  18.2337  18.3242  18.6241  18.6592  19.2554
    19.5479  19.7160  19.8101  20.1305  20.3512  20.3768  20.5345  20.6677
    23.2551  23.4799

          k = 0.1111 0.1111 0.4444 (  5642 PWs)   bands (ev):

   -67.3408 -67.3212 -67.3044 -66.5342 -34.0393 -33.9592 -33.9197 -33.2555
   -33.2495 -33.2191 -33.1931 -33.1914 -33.1698 -32.6595 -32.6512 -32.6470
     1.2205  10.3946  12.2897  12.3298  14.0818  15.0146  16.3638  16.3826
    16.6159  16.8206  17.1844  17.9903  18.2140  18.7878  18.8098  19.0187
    19.2803  19.6469  19.6878  20.0055  20.1072  20.3073  20.5549  20.6466
    23.2685  23.5699

          k = 0.1111 0.2222 0.2222 (  5639 PWs)   bands (ev):

   -67.3495 -67.3104 -67.3068 -66.5340 -34.0478 -33.9556 -33.9249 -33.2580
   -33.2393 -33.2381 -33.1897 -33.1867 -33.1648 -32.6587 -32.6443 -32.6416
     1.0206  11.5146  11.7668  12.3874  13.3766  15.7049  15.8413  16.1114
    16.3317  16.3854  17.6421  18.2113  18.2634  18.5898  18.6024  19.4321
    19.5369  19.8339  19.8432  20.2443  20.4428  20.4850  20.7332  20.8292
    23.2312  23.9480

          k = 0.1111 0.2222 0.3333 (  5649 PWs)   bands (ev):

   -67.3435 -67.3154 -67.3075 -66.5342 -34.0647 -33.9516 -33.9032 -33.2725
   -33.2490 -33.2371 -33.1868 -33.1844 -33.1542 -32.6596 -32.6473 -32.6436
     1.2470  10.8580  11.6120  12.2614  13.7626  15.6583  16.1558  16.3308
    16.5276  16.6658  17.4267  17.9412  18.1454  18.6012  18.6613  19.2786
    19.3049  19.7075  19.8068  20.0901  20.3809  20.4339  20.7269  20.8369
    23.1221  23.7706

          k = 0.1111 0.2222 0.4444 (  5646 PWs)   bands (ev):

   -67.3375 -67.3211 -67.3077 -66.5343 -34.0736 -33.9494 -33.8908 -33.2806
   -33.2548 -33.2359 -33.1851 -33.1843 -33.1483 -32.6568 -32.6518 -32.6456
     1.4068  10.3806  11.5691  12.1839  14.2837  15.2982  16.4058  16.5690
    16.6598  16.9781  17.1960  17.6116  18.0542  18.6273  18.8416  19.0781
    19.1797  19.7035  19.8065  19.9546  20.3200  20.3836  20.4886  20.8726
    23.1479  23.7272

          k = 0.1111 0.3333 0.3333 (  5636 PWs)   bands (ev):

   -67.3381 -67.3170 -67.3110 -66.5343 -34.0878 -33.9472 -33.8780 -33.2913
   -33.2517 -33.2483 -33.1839 -33.1821 -33.1370 -32.6586 -32.6485 -32.6434
     1.4755  10.8128  10.8552  12.1301  14.1554  15.9510  16.0738  16.5543
    16.6817  16.8737  17.3273  17.6484  17.9847  18.5078  18.7411  19.0992
    19.3929  19.5431  19.9245  19.9253  20.2623  20.4117  20.8990  20.9786
    22.5967  24.2118

          k = 0.1111 0.3333 0.4444 (  5645 PWs)   bands (ev):

   -67.3326 -67.3210 -67.3125 -66.5344 -34.1001 -33.9449 -33.8637 -33.3015
   -33.2576 -33.2506 -33.1823 -33.1816 -33.1276 -32.6566 -32.6490 -32.6448
     1.6372  10.3573  10.8096  12.0491  14.6049  15.6791  16.2447  16.7777
    16.8632  17.0630  17.1780  17.4115  17.9288  18.4042  18.8160  18.9919
    19.3563  19.5855  19.7349  19.9971  20.1415  20.5099  20.7325  21.0736
    22.3527  24.2456

          k = 0.1111 0.4444 0.4444 (  5651 PWs)   bands (ev):

   -67.3269 -67.3214 -67.3177 -66.5345 -34.1144 -33.9427 -33.8483 -33.3125
   -33.2596 -33.2589 -33.1810 -33.1807 -33.1161 -32.6572 -32.6461 -32.6448
     1.8006  10.3377  10.3392  11.9666  14.9337  16.0001  16.0399  16.8475
    16.9397  17.0019  17.1570  17.6204  17.8815  18.1387  18.6871  19.0349
    19.4394  19.5804  19.6279  19.9205  19.9915  20.7276  20.8659  21.1318
    21.8242  24.5863

          k = 0.2222 0.2222 0.2222 (  5641 PWs)   bands (ev):

   -67.3458 -67.3104 -67.3104 -66.5341 -34.0765 -33.9229 -33.9229 -33.2604
   -33.2604 -33.2577 -33.1737 -33.1737 -33.1589 -32.6617 -32.6420 -32.6420
     1.2057  11.5061  11.6337  11.6337  13.6123  15.9661  15.9661  16.3817
    16.3966  16.3966  17.6139  18.0866  18.0866  18.6343  18.6343  19.2220
    19.2260  19.7414  19.7414  20.3387  20.4376  20.4376  21.0808  21.0808
    23.3982  23.8160

          k = 0.2222 0.2222 0.3333 (  5647 PWs)   bands (ev):

   -67.3403 -67.3156 -67.3103 -66.5343 -34.0986 -33.9206 -33.8963 -33.2775
   -33.2752 -33.2606 -33.1687 -33.1632 -33.1493 -32.6607 -32.6436 -32.6425
     1.4341  10.8148  11.4946  11.5407  14.0016  15.8923  16.3478  16.3807
    16.5664  16.7444  17.4594  17.8199  17.9652  18.6063  18.6857  18.9749
    19.2137  19.6814  19.7899  20.2389  20.3914  20.4174  20.9564  21.2861
    23.3382  23.6143

          k = 0.2222 0.2222 0.4444 (  5653 PWs)   bands (ev):

   -67.3348 -67.3210 -67.3103 -66.5343 -34.1103 -33.9191 -33.8815 -33.2869
   -33.2839 -33.2616 -33.1669 -33.1584 -33.1433 -32.6561 -32.6483 -32.6428
     1.5956  10.3377  11.4097  11.5224  14.4644  15.5474  16.4104  16.6967
    16.7874  17.0779  17.2515  17.4551  17.9247  18.6160  18.7208  18.7990
    19.2521  19.7838  19.9000  20.1215  20.3453  20.3573  20.5395  21.3925
    23.3755  23.4645

          k = 0.2222 0.3333 0.3333 (  5672 PWs)   bands (ev):

   -67.3357 -67.3170 -67.3134 -66.5343 -34.1254 -33.9083 -33.8771 -33.2973
   -33.2817 -33.2779 -33.1577 -33.1559 -33.1361 -32.6580 -32.6426 -32.6417
     1.6656  10.7522  10.7602  11.4202  14.3579  16.1257  16.1731  16.5864
    16.7960  16.9211  17.4230  17.6831  17.8435  18.5152  18.6480  18.7615
    19.3530  19.6426  19.8909  20.1766  20.3808  20.3979  21.0674  21.4867
    22.7519  23.7085

          k = 0.2222 0.3333 0.4444 (  5665 PWs)   bands (ev):

   -67.3307 -67.3210 -67.3143 -66.5344 -34.1398 -33.9053 -33.8624 -33.3084
   -33.2904 -33.2822 -33.1554 -33.1512 -33.1271 -32.6535 -32.6444 -32.6414
     1.8299  10.2858  10.7142  11.3584  14.7237  15.8573  16.2693  16.8390
    17.0110  17.0613  17.3091  17.5576  17.8462  18.4195  18.5341  18.7266
    19.4683  19.7476  19.9630  20.0615  20.3216  20.4547  20.7326  21.6902
    22.3548  23.6888

          k = 0.2222 0.4444 0.4444 (  5661 PWs)   bands (ev):

   -67.3260 -67.3213 -67.3185 -66.5344 -34.1558 -33.9014 -33.8481 -33.3204
   -33.2942 -33.2935 -33.1500 -33.1497 -33.1160 -32.6506 -32.6420 -32.6416
     1.9965  10.2483  10.2525  11.2854  14.9449  16.0843  16.1706  16.6784
    17.2037  17.2403  17.3388  17.7457  17.8436  18.1954  18.3678  18.7281
    19.6945  19.7353  19.8896  19.9603  20.2305  20.6469  20.8154  21.6141
    21.8571  23.8910

          k = 0.3333 0.3333 0.3333 (  5674 PWs)   bands (ev):

   -67.3320 -67.3170 -67.3170 -66.5344 -34.1560 -33.8760 -33.8760 -33.3050
   -33.3050 -33.2992 -33.1396 -33.1396 -33.1325 -32.6536 -32.6396 -32.6396
     1.9016  10.6414  10.6414  10.7355  14.6297  16.0845  16.4471  16.4471
    17.0962  17.0962  17.5106  17.7476  17.7476  18.4509  18.5261  18.5261
    19.5069  19.8519  19.8519  20.2901  20.3766  20.3766  21.3681  21.3681
    22.9696  22.9696

          k = 0.3333 0.3333 0.4444 (  5670 PWs)   bands (ev):

   -67.3279 -67.3209 -67.3169 -66.5344 -34.1726 -33.8753 -33.8583 -33.3177
   -33.3138 -33.3068 -33.1369 -33.1305 -33.1248 -32.6481 -32.6403 -32.6383
     2.0699  10.2055  10.5723  10.6659  14.8548  16.0358  16.2882  16.6334
    17.3159  17.3330  17.5113  17.7320  17.8247  18.2903  18.4219  18.5178
    19.6672  19.9047  20.0208  20.2105  20.3911  20.4087  20.7766  21.7181
    22.3429  23.1538

          k = 0.3333 0.4444 0.4444 (  5669 PWs)   bands (ev):

   -67.3247 -67.3213 -67.3197 -66.5344 -34.1906 -33.8668 -33.8479 -33.3292
   -33.3207 -33.3199 -33.1277 -33.1273 -33.1158 -32.6429 -32.6378 -32.6376
     2.2414  10.1495  10.1590  10.5581  14.9337  16.1693  16.2828  16.4801
    17.5930  17.5999  17.6677  17.8606  17.8669  18.1339  18.3007  18.4931
    19.8644  19.9517  20.0423  20.1419  20.4204  20.4858  20.7233  21.2318
    22.3669  23.1204

          k = 0.4444 0.4444 0.4444 (  5673 PWs)   bands (ev):

   -67.3231 -67.3213 -67.3213 -66.5344 -34.2097 -33.8478 -33.8478 -33.3350
   -33.3350 -33.3339 -33.1162 -33.1162 -33.1153 -32.6374 -32.6354 -32.6354
     2.4171  10.0873  10.0873  10.1098  14.9156  16.2393  16.3306  16.3306
    17.8953  17.8953  17.9815  17.9815  17.9858  18.0027  18.3670  18.3670
    20.0137  20.0716  20.0716  20.2609  20.3452  20.3452  20.7356  20.7356
    22.6696  22.6696

     the Fermi energy is    18.7324 ev

!    total energy              =   -1345.16747237 Ry
     Harris-Foulkes estimate   =   -1345.16747237 Ry
     estimated scf accuracy    <          6.8E-10 Ry

     total all-electron energy =    -10291.769108 Ry

     The total energy is the sum of the following terms:

     one-electron contribution =    -446.73366007 Ry
     hartree contribution      =     269.20349731 Ry
     xc contribution           =    -117.08939097 Ry
     ewald contribution        =    -711.61403732 Ry
     one-center paw contrib.   =    -338.93397184 Ry
     smearing contrib. (-TS)   =       0.00009053 Ry

     total magnetization       =     7.68 Bohr mag/cell
     absolute magnetization    =     8.03 Bohr mag/cell

     convergence has been achieved in  26 iterations

     Forces acting on atoms (Ry/au):


     negative rho (up, down):  0.000E+00 2.526E-04
     atom    1 type  1   force =     0.00000000    0.00000000    0.00000000
     atom    2 type  1   force =     0.00000000    0.00000000    0.00000000
     atom    3 type  1   force =     0.00000000    0.00000000    0.00000000
     atom    4 type  1   force =     0.00000000    0.00000000    0.00000000
     atom    5 type  2   force =     0.00000000    0.00000000    0.00000000

     Total force =     0.000000     Total SCF correction =     0.000000


     entering subroutine stress ...


     negative rho (up, down):  0.000E+00 2.526E-04
          total   stress  (Ry/bohr**3)                   (kbar)     P=  150.31
   0.00102176   0.00000000   0.00000000        150.31      0.00      0.00
   0.00000000   0.00102176   0.00000000          0.00    150.31      0.00
   0.00000000   0.00000000   0.00102176          0.00      0.00    150.31


     Writing output data file config.save
 
     init_run     :      3.19s CPU      3.36s WALL (       1 calls)
     electrons    :    200.62s CPU    218.11s WALL (       1 calls)
     forces       :      0.74s CPU      0.77s WALL (       1 calls)
     stress       :      1.98s CPU      2.31s WALL (       1 calls)

     Called by init_run:
     wfcinit      :      2.20s CPU      2.28s WALL (       1 calls)
     potinit      :      0.43s CPU      0.48s WALL (       1 calls)

     Called by electrons:
     c_bands      :    156.75s CPU    172.13s WALL (      26 calls)
     sum_band     :     30.29s CPU     31.49s WALL (      26 calls)
     v_of_rho     :      1.40s CPU      1.44s WALL (      27 calls)
     newd         :      1.75s CPU      2.15s WALL (      27 calls)
     mix_rho      :      0.35s CPU      0.36s WALL (      26 calls)

     Called by c_bands:
     init_us_2    :      2.76s CPU      2.93s WALL (    3850 calls)
     cegterg      :    146.47s CPU    160.88s WALL (    1820 calls)

     Called by sum_band:
     sum_band:bec :      0.07s CPU      0.07s WALL (    1820 calls)
     addusdens    :      4.05s CPU      4.67s WALL (      26 calls)

     Called by *egterg:
     h_psi        :     94.05s CPU    100.96s WALL (    6265 calls)
     s_psi        :      4.35s CPU      4.46s WALL (    6265 calls)
     g_psi        :      0.85s CPU      0.91s WALL (    4375 calls)
     cdiaghg      :     19.87s CPU     20.98s WALL (    6195 calls)

     Called by h_psi:
     add_vuspsi   :      4.13s CPU      4.26s WALL (    6265 calls)

     General routines
     calbec       :      7.98s CPU      8.32s WALL (    8435 calls)
     fft          :      0.72s CPU      0.74s WALL (     871 calls)
     ffts         :      0.04s CPU      0.04s WALL (     106 calls)
     fftw         :     84.18s CPU     89.64s WALL (  437090 calls)
     interpolate  :      0.16s CPU      0.16s WALL (     106 calls)
     davcio       :      0.04s CPU      0.31s WALL (      70 calls)
 
     Parallel routines
     fft_scatter  :     29.48s CPU     31.62s WALL (  438067 calls)

     PAW routines
     PAW_pot      :     10.34s CPU     10.79s WALL (      27 calls)
     PAW_symme    :      0.04s CPU      0.04s WALL (      53 calls)
 
     PWSCF        :  3m27.15s CPU     3m46.10s WALL

 
   This run was terminated on:  22:56: 5  26Oct2020            

=------------------------------------------------------------------------------=
   JOB DONE.
=------------------------------------------------------------------------------=
