
     Program PWSCF v.5.2.0 starts on 26Oct2020 at 22:57:40 

     This program is part of the open-source Quantum ESPRESSO suite
     for quantum simulation of materials; please cite
         "P. Giannozzi et al., J. Phys.:Condens. Matter 21 395502 (2009);
          URL http://www.quantum-espresso.org", 
     in publications or presentations arising from this work. More details at
     http://www.quantum-espresso.org/quote

     Parallel version (MPI), running on     6 processors
     R & G space division:  proc/nbgrp/npool/nimage =       6
     Reading input from 6.in

     Current dimensions of program PWSCF are:
     Max number of different atomic species (ntypx) = 10
     Max number of k-points (npk) =  40000
     Max angular momentum in pseudopotentials (lmaxx) =  3

     IMPORTANT: XC functional enforced from input :
     Exchange-correlation      = PBE ( 1  4  3  4 0 0)
     Any further DFT definition will be discarded
     Please, verify this is what you really want

               file Fe_PSEUDO: wavefunction(s)  3P 3D renormalized
               file N_PSEUDO: wavefunction(s)  2S renormalized

     Subspace diagonalization in iterative solution of the eigenvalue problem:
     a serial algorithm will be used

 
     Parallelization info
     --------------------
     sticks:   dense  smooth     PW     G-vecs:    dense   smooth      PW
     Min         422     280     80                15960     8691    1312
     Max         423     281     81                15963     8705    1315
     Sum        2537    1685    481                95769    52179    7881
 
     Generating pointlists ...
     new r_m :   0.2063 (alat units)  1.4318 (a.u.) for type    1
     new r_m :   0.2063 (alat units)  1.4318 (a.u.) for type    2


     bravais-lattice index     =            0
     lattice parameter (alat)  =       6.9422  a.u.
     unit-cell volume          =     334.5777 (a.u.)^3
     number of atoms/cell      =            5
     number of atomic types    =            2
     number of electrons       =        69.00
     number of Kohn-Sham states=           42
     kinetic-energy cutoff     =     110.0000  Ry
     charge density cutoff     =     660.0000  Ry
     convergence threshold     =      1.0E-08
     mixing beta               =       0.7000
     number of iterations used =            8  plain     mixing
     Exchange-correlation      = PBE ( 1  4  3  4 0 0)

     celldm(1)=   6.942230  celldm(2)=   0.000000  celldm(3)=   0.000000
     celldm(4)=   0.000000  celldm(5)=   0.000000  celldm(6)=   0.000000

     crystal axes: (cart. coord. in units of alat)
               a(1) = (   1.000000   0.000000   0.000000 )  
               a(2) = (   0.000000   1.000000   0.000000 )  
               a(3) = (   0.000000   0.000000   1.000000 )  

     reciprocal axes: (cart. coord. in units 2 pi/alat)
               b(1) = (  1.000000  0.000000  0.000000 )  
               b(2) = (  0.000000  1.000000  0.000000 )  
               b(3) = (  0.000000  0.000000  1.000000 )  


     PseudoPot. # 1 for Fe read from file:
     pseudo/Fe_PSEUDO
     MD5 check sum: e30d5f36a6f0cb983ee41abee56170da
     Pseudo is Projector augmented-wave + core cor, Zval = 16.0
     Generated using "atomic" code by A. Dal Corso  v.6.3
     Shape of augmentation charge: PSQ
     Using radial grid of 1191 points,  6 beta functions with: 
                l(1) =   0
                l(2) =   0
                l(3) =   1
                l(4) =   1
                l(5) =   2
                l(6) =   2
     Q(r) pseudized with 0 coefficients 


     PseudoPot. # 2 for  N read from file:
     pseudo/N_PSEUDO
     MD5 check sum: 14c48229446f9f2d411169a3abcbc3fa
     Pseudo is Projector augmented-wave + core cor, Zval =  5.0
     Generated using "atomic" code by A. Dal Corso  v.6.3
     Shape of augmentation charge: PSQ
     Using radial grid of 1085 points,  4 beta functions with: 
                l(1) =   0
                l(2) =   0
                l(3) =   1
                l(4) =   1
     Q(r) pseudized with 0 coefficients 


     atomic species   valence    mass     pseudopotential
        Fe            16.00    55.84500     Fe( 1.00)
        N              5.00    14.00650      N( 1.00)

     Starting magnetic structure 
     atomic species   magnetization
        Fe           0.500
        N           -0.010

     48 Sym. Ops., with inversion, found



   Cartesian axes

     site n.     atom                  positions (alat units)
         1           Fe  tau(   1) = (   0.0000000   0.5000000   0.5000000  )
         2           Fe  tau(   2) = (   0.5000000   0.5000000   0.0000000  )
         3           Fe  tau(   3) = (   0.5000000   0.0000000   0.5000000  )
         4           Fe  tau(   4) = (   0.0000000   0.0000000   0.0000000  )
         5           N   tau(   5) = (   0.5000000   0.5000000   0.5000000  )

     number of k points=    70  Marzari-Vanderbilt smearing, width (Ry)=  0.0050
                       cart. coord. in units 2pi/alat
        k(    1) = (   0.0000000   0.0000000   0.0000000), wk =   0.0013717
        k(    2) = (   0.0000000   0.0000000   0.1111111), wk =   0.0082305
        k(    3) = (   0.0000000   0.0000000   0.2222222), wk =   0.0082305
        k(    4) = (   0.0000000   0.0000000   0.3333333), wk =   0.0082305
        k(    5) = (   0.0000000   0.0000000   0.4444444), wk =   0.0082305
        k(    6) = (   0.0000000   0.1111111   0.1111111), wk =   0.0164609
        k(    7) = (   0.0000000   0.1111111   0.2222222), wk =   0.0329218
        k(    8) = (   0.0000000   0.1111111   0.3333333), wk =   0.0329218
        k(    9) = (   0.0000000   0.1111111   0.4444444), wk =   0.0329218
        k(   10) = (   0.0000000   0.2222222   0.2222222), wk =   0.0164609
        k(   11) = (   0.0000000   0.2222222   0.3333333), wk =   0.0329218
        k(   12) = (   0.0000000   0.2222222   0.4444444), wk =   0.0329218
        k(   13) = (   0.0000000   0.3333333   0.3333333), wk =   0.0164609
        k(   14) = (   0.0000000   0.3333333   0.4444444), wk =   0.0329218
        k(   15) = (   0.0000000   0.4444444   0.4444444), wk =   0.0164609
        k(   16) = (   0.1111111   0.1111111   0.1111111), wk =   0.0109739
        k(   17) = (   0.1111111   0.1111111   0.2222222), wk =   0.0329218
        k(   18) = (   0.1111111   0.1111111   0.3333333), wk =   0.0329218
        k(   19) = (   0.1111111   0.1111111   0.4444444), wk =   0.0329218
        k(   20) = (   0.1111111   0.2222222   0.2222222), wk =   0.0329218
        k(   21) = (   0.1111111   0.2222222   0.3333333), wk =   0.0658436
        k(   22) = (   0.1111111   0.2222222   0.4444444), wk =   0.0658436
        k(   23) = (   0.1111111   0.3333333   0.3333333), wk =   0.0329218
        k(   24) = (   0.1111111   0.3333333   0.4444444), wk =   0.0658436
        k(   25) = (   0.1111111   0.4444444   0.4444444), wk =   0.0329218
        k(   26) = (   0.2222222   0.2222222   0.2222222), wk =   0.0109739
        k(   27) = (   0.2222222   0.2222222   0.3333333), wk =   0.0329218
        k(   28) = (   0.2222222   0.2222222   0.4444444), wk =   0.0329218
        k(   29) = (   0.2222222   0.3333333   0.3333333), wk =   0.0329218
        k(   30) = (   0.2222222   0.3333333   0.4444444), wk =   0.0658436
        k(   31) = (   0.2222222   0.4444444   0.4444444), wk =   0.0329218
        k(   32) = (   0.3333333   0.3333333   0.3333333), wk =   0.0109739
        k(   33) = (   0.3333333   0.3333333   0.4444444), wk =   0.0329218
        k(   34) = (   0.3333333   0.4444444   0.4444444), wk =   0.0329218
        k(   35) = (   0.4444444   0.4444444   0.4444444), wk =   0.0109739
        k(   36) = (   0.0000000   0.0000000   0.0000000), wk =   0.0013717
        k(   37) = (   0.0000000   0.0000000   0.1111111), wk =   0.0082305
        k(   38) = (   0.0000000   0.0000000   0.2222222), wk =   0.0082305
        k(   39) = (   0.0000000   0.0000000   0.3333333), wk =   0.0082305
        k(   40) = (   0.0000000   0.0000000   0.4444444), wk =   0.0082305
        k(   41) = (   0.0000000   0.1111111   0.1111111), wk =   0.0164609
        k(   42) = (   0.0000000   0.1111111   0.2222222), wk =   0.0329218
        k(   43) = (   0.0000000   0.1111111   0.3333333), wk =   0.0329218
        k(   44) = (   0.0000000   0.1111111   0.4444444), wk =   0.0329218
        k(   45) = (   0.0000000   0.2222222   0.2222222), wk =   0.0164609
        k(   46) = (   0.0000000   0.2222222   0.3333333), wk =   0.0329218
        k(   47) = (   0.0000000   0.2222222   0.4444444), wk =   0.0329218
        k(   48) = (   0.0000000   0.3333333   0.3333333), wk =   0.0164609
        k(   49) = (   0.0000000   0.3333333   0.4444444), wk =   0.0329218
        k(   50) = (   0.0000000   0.4444444   0.4444444), wk =   0.0164609
        k(   51) = (   0.1111111   0.1111111   0.1111111), wk =   0.0109739
        k(   52) = (   0.1111111   0.1111111   0.2222222), wk =   0.0329218
        k(   53) = (   0.1111111   0.1111111   0.3333333), wk =   0.0329218
        k(   54) = (   0.1111111   0.1111111   0.4444444), wk =   0.0329218
        k(   55) = (   0.1111111   0.2222222   0.2222222), wk =   0.0329218
        k(   56) = (   0.1111111   0.2222222   0.3333333), wk =   0.0658436
        k(   57) = (   0.1111111   0.2222222   0.4444444), wk =   0.0658436
        k(   58) = (   0.1111111   0.3333333   0.3333333), wk =   0.0329218
        k(   59) = (   0.1111111   0.3333333   0.4444444), wk =   0.0658436
        k(   60) = (   0.1111111   0.4444444   0.4444444), wk =   0.0329218
        k(   61) = (   0.2222222   0.2222222   0.2222222), wk =   0.0109739
        k(   62) = (   0.2222222   0.2222222   0.3333333), wk =   0.0329218
        k(   63) = (   0.2222222   0.2222222   0.4444444), wk =   0.0329218
        k(   64) = (   0.2222222   0.3333333   0.3333333), wk =   0.0329218
        k(   65) = (   0.2222222   0.3333333   0.4444444), wk =   0.0658436
        k(   66) = (   0.2222222   0.4444444   0.4444444), wk =   0.0329218
        k(   67) = (   0.3333333   0.3333333   0.3333333), wk =   0.0109739
        k(   68) = (   0.3333333   0.3333333   0.4444444), wk =   0.0329218
        k(   69) = (   0.3333333   0.4444444   0.4444444), wk =   0.0329218
        k(   70) = (   0.4444444   0.4444444   0.4444444), wk =   0.0109739

     Dense  grid:    95769 G-vectors     FFT dimensions: (  60,  60,  60)

     Smooth grid:    52179 G-vectors     FFT dimensions: (  48,  48,  48)

     Largest allocated arrays     est. size (Mb)     dimensions
        Kohn-Sham Wavefunctions         0.71 Mb     (    1107,   42)
        NL pseudopotentials             1.35 Mb     (    1107,   80)
        Each V/rho on FFT grid          1.10 Mb     (   36000,   2)
        Each G-vector array             0.12 Mb     (   15963)
        G-vector shells                 0.01 Mb     (     668)
     Largest temporary arrays     est. size (Mb)     dimensions
        Auxiliary wavefunctions         2.84 Mb     (    1107,  168)
        Each subspace H/S matrix        0.43 Mb     (     168,  168)
        Each <psi_i|beta_j> matrix      0.05 Mb     (      80,   42)
        Arrays for rho mixing           4.39 Mb     (   36000,    8)

     Check: negative/imaginary core charge=   -0.000001    0.000000

     Initial potential from superposition of free atoms

     starting charge   68.99837, renormalised to   69.00000
     Starting wfc are   44 randomized atomic wfcs
     Checking if some PAW data can be deallocated... 

     total cpu time spent up to now is        4.4 secs

     per-process dynamical memory:    87.0 Mb

     Self-consistent Calculation

     iteration #  1     ecut=   110.00 Ry     beta=0.70
     Davidson diagonalization with overlap
     ethr =  1.00E-02,  avg # of iterations =  3.1

     negative rho (up, down):  0.000E+00 6.014E-04
 
     Magnetic moment per site:
     atom:    1    charge:   12.7336    magn:    4.0982    constr:    0.0000
     atom:    2    charge:   12.7336    magn:    4.0982    constr:    0.0000
     atom:    3    charge:   12.7336    magn:    4.0982    constr:    0.0000
     atom:    4    charge:   12.6141    magn:    4.1673    constr:    0.0000
     atom:    5    charge:    4.6365    magn:    0.1186    constr:    0.0000

     total cpu time spent up to now is       13.8 secs

     total energy              =   -1344.14122688 Ry
     Harris-Foulkes estimate   =   -1343.44329855 Ry
     estimated scf accuracy    <       2.86622738 Ry

     total magnetization       =    13.87 Bohr mag/cell
     absolute magnetization    =    14.05 Bohr mag/cell

     iteration #  2     ecut=   110.00 Ry     beta=0.70
     Davidson diagonalization with overlap
     ethr =  4.15E-03,  avg # of iterations =  3.3

     negative rho (up, down):  0.000E+00 5.197E-04
 
     Magnetic moment per site:
     atom:    1    charge:   12.7247    magn:    3.8173    constr:    0.0000
     atom:    2    charge:   12.7247    magn:    3.8173    constr:    0.0000
     atom:    3    charge:   12.7247    magn:    3.8173    constr:    0.0000
     atom:    4    charge:   13.0653    magn:    3.5708    constr:    0.0000
     atom:    5    charge:    4.2267    magn:    0.0572    constr:    0.0000

     total cpu time spent up to now is       23.3 secs

     total energy              =   -1343.29840498 Ry
     Harris-Foulkes estimate   =   -1345.74676753 Ry
     estimated scf accuracy    <       8.51483719 Ry

     total magnetization       =     9.38 Bohr mag/cell
     absolute magnetization    =    10.50 Bohr mag/cell

     iteration #  3     ecut=   110.00 Ry     beta=0.70
     Davidson diagonalization with overlap
     ethr =  4.15E-03,  avg # of iterations =  3.5

     negative rho (up, down):  0.000E+00 3.999E-04
 
     Magnetic moment per site:
     atom:    1    charge:   12.8855    magn:    3.4485    constr:    0.0000
     atom:    2    charge:   12.8855    magn:    3.4485    constr:    0.0000
     atom:    3    charge:   12.8855    magn:    3.4485    constr:    0.0000
     atom:    4    charge:   12.8126    magn:    3.0186    constr:    0.0000
     atom:    5    charge:    4.0307    magn:    0.0242    constr:    0.0000

     total cpu time spent up to now is       33.2 secs

     total energy              =   -1343.61989780 Ry
     Harris-Foulkes estimate   =   -1346.18605778 Ry
     estimated scf accuracy    <      25.51168314 Ry

     total magnetization       =     3.80 Bohr mag/cell
     absolute magnetization    =     4.50 Bohr mag/cell

     iteration #  4     ecut=   110.00 Ry     beta=0.70
     Davidson diagonalization with overlap
     ethr =  4.15E-03,  avg # of iterations =  3.2

     negative rho (up, down):  0.000E+00 7.364E-04
 
     Magnetic moment per site:
     atom:    1    charge:   12.7749    magn:    2.2618    constr:    0.0000
     atom:    2    charge:   12.7749    magn:    2.2618    constr:    0.0000
     atom:    3    charge:   12.7749    magn:    2.2618    constr:    0.0000
     atom:    4    charge:   12.7290    magn:    1.8785    constr:    0.0000
     atom:    5    charge:    4.0539    magn:   -0.0485    constr:    0.0000

     total cpu time spent up to now is       42.1 secs

     total energy              =   -1345.02667359 Ry
     Harris-Foulkes estimate   =   -1345.10434181 Ry
     estimated scf accuracy    <       0.54858931 Ry

     total magnetization       =    10.75 Bohr mag/cell
     absolute magnetization    =    11.16 Bohr mag/cell

     iteration #  5     ecut=   110.00 Ry     beta=0.70
     Davidson diagonalization with overlap
     ethr =  7.95E-04,  avg # of iterations =  3.3

     negative rho (up, down):  0.000E+00 6.342E-04
 
     Magnetic moment per site:
     atom:    1    charge:   12.8337    magn:    2.1624    constr:    0.0000
     atom:    2    charge:   12.8337    magn:    2.1624    constr:    0.0000
     atom:    3    charge:   12.8337    magn:    2.1624    constr:    0.0000
     atom:    4    charge:   12.8046    magn:    2.0421    constr:    0.0000
     atom:    5    charge:    4.1106    magn:   -0.0267    constr:    0.0000

     total cpu time spent up to now is       52.5 secs

     total energy              =   -1345.11210893 Ry
     Harris-Foulkes estimate   =   -1345.19927758 Ry
     estimated scf accuracy    <       0.24090014 Ry

     total magnetization       =     9.59 Bohr mag/cell
     absolute magnetization    =     9.95 Bohr mag/cell

     iteration #  6     ecut=   110.00 Ry     beta=0.70
     Davidson diagonalization with overlap
     ethr =  3.49E-04,  avg # of iterations =  3.0

     negative rho (up, down):  0.000E+00 5.739E-04
 
     Magnetic moment per site:
     atom:    1    charge:   12.8275    magn:    2.1148    constr:    0.0000
     atom:    2    charge:   12.8275    magn:    2.1148    constr:    0.0000
     atom:    3    charge:   12.8275    magn:    2.1148    constr:    0.0000
     atom:    4    charge:   12.7935    magn:    2.3701    constr:    0.0000
     atom:    5    charge:    4.1126    magn:    0.0064    constr:    0.0000

     total cpu time spent up to now is       61.6 secs

     total energy              =   -1345.15883933 Ry
     Harris-Foulkes estimate   =   -1345.15460956 Ry
     estimated scf accuracy    <       0.02607141 Ry

     total magnetization       =     9.38 Bohr mag/cell
     absolute magnetization    =     9.72 Bohr mag/cell

     iteration #  7     ecut=   110.00 Ry     beta=0.70
     Davidson diagonalization with overlap
     ethr =  3.78E-05,  avg # of iterations =  1.7

     negative rho (up, down):  0.000E+00 5.115E-04
 
     Magnetic moment per site:
     atom:    1    charge:   12.8282    magn:    1.9575    constr:    0.0000
     atom:    2    charge:   12.8282    magn:    1.9575    constr:    0.0000
     atom:    3    charge:   12.8282    magn:    1.9575    constr:    0.0000
     atom:    4    charge:   12.7731    magn:    2.8099    constr:    0.0000
     atom:    5    charge:    4.1119    magn:    0.0391    constr:    0.0000

     total cpu time spent up to now is       69.2 secs

     total energy              =   -1345.15872297 Ry
     Harris-Foulkes estimate   =   -1345.16059955 Ry
     estimated scf accuracy    <       0.01805240 Ry

     total magnetization       =     9.38 Bohr mag/cell
     absolute magnetization    =     9.71 Bohr mag/cell

     iteration #  8     ecut=   110.00 Ry     beta=0.70
     Davidson diagonalization with overlap
     ethr =  2.62E-05,  avg # of iterations =  2.2

     negative rho (up, down):  0.000E+00 4.908E-04
 
     Magnetic moment per site:
     atom:    1    charge:   12.8313    magn:    1.8626    constr:    0.0000
     atom:    2    charge:   12.8313    magn:    1.8626    constr:    0.0000
     atom:    3    charge:   12.8313    magn:    1.8626    constr:    0.0000
     atom:    4    charge:   12.7756    magn:    2.7251    constr:    0.0000
     atom:    5    charge:    4.1097    magn:    0.0310    constr:    0.0000

     total cpu time spent up to now is       78.3 secs

     total energy              =   -1345.16373810 Ry
     Harris-Foulkes estimate   =   -1345.16276658 Ry
     estimated scf accuracy    <       0.00208510 Ry

     total magnetization       =     9.00 Bohr mag/cell
     absolute magnetization    =     9.35 Bohr mag/cell

     iteration #  9     ecut=   110.00 Ry     beta=0.70
     Davidson diagonalization with overlap
     ethr =  3.02E-06,  avg # of iterations =  2.1

     negative rho (up, down):  0.000E+00 5.560E-04
 
     Magnetic moment per site:
     atom:    1    charge:   12.8292    magn:    1.9947    constr:    0.0000
     atom:    2    charge:   12.8292    magn:    1.9947    constr:    0.0000
     atom:    3    charge:   12.8292    magn:    1.9947    constr:    0.0000
     atom:    4    charge:   12.7746    magn:    2.7579    constr:    0.0000
     atom:    5    charge:    4.1145    magn:    0.0387    constr:    0.0000

     total cpu time spent up to now is       86.3 secs

     total energy              =   -1345.16120315 Ry
     Harris-Foulkes estimate   =   -1345.16456201 Ry
     estimated scf accuracy    <       0.00202478 Ry

     total magnetization       =     8.59 Bohr mag/cell
     absolute magnetization    =     8.97 Bohr mag/cell

     iteration # 10     ecut=   110.00 Ry     beta=0.70
     Davidson diagonalization with overlap
     ethr =  2.93E-06,  avg # of iterations =  1.9

     negative rho (up, down):  0.000E+00 6.051E-04
 
     Magnetic moment per site:
     atom:    1    charge:   12.8277    magn:    2.0793    constr:    0.0000
     atom:    2    charge:   12.8277    magn:    2.0793    constr:    0.0000
     atom:    3    charge:   12.8277    magn:    2.0793    constr:    0.0000
     atom:    4    charge:   12.7756    magn:    2.7410    constr:    0.0000
     atom:    5    charge:    4.1180    magn:    0.0452    constr:    0.0000

     total cpu time spent up to now is       94.0 secs

     total energy              =   -1345.16096726 Ry
     Harris-Foulkes estimate   =   -1345.16263510 Ry
     estimated scf accuracy    <       0.00219683 Ry

     total magnetization       =     9.10 Bohr mag/cell
     absolute magnetization    =     9.44 Bohr mag/cell

     iteration # 11     ecut=   110.00 Ry     beta=0.70
     Davidson diagonalization with overlap
     ethr =  2.93E-06,  avg # of iterations =  1.7

     negative rho (up, down):  0.000E+00 3.982E-04
 
     Magnetic moment per site:
     atom:    1    charge:   12.8345    magn:    1.7204    constr:    0.0000
     atom:    2    charge:   12.8345    magn:    1.7204    constr:    0.0000
     atom:    3    charge:   12.8345    magn:    1.7204    constr:    0.0000
     atom:    4    charge:   12.7755    magn:    2.6962    constr:    0.0000
     atom:    5    charge:    4.1048    magn:    0.0139    constr:    0.0000

     total cpu time spent up to now is      101.9 secs

     total energy              =   -1345.15739303 Ry
     Harris-Foulkes estimate   =   -1345.16146629 Ry
     estimated scf accuracy    <       0.00284184 Ry

     total magnetization       =     9.33 Bohr mag/cell
     absolute magnetization    =     9.67 Bohr mag/cell

     iteration # 12     ecut=   110.00 Ry     beta=0.70
     Davidson diagonalization with overlap
     ethr =  2.93E-06,  avg # of iterations =  3.1

     negative rho (up, down):  0.000E+00 2.017E-04
 
     Magnetic moment per site:
     atom:    1    charge:   12.8417    magn:    1.3230    constr:    0.0000
     atom:    2    charge:   12.8417    magn:    1.3230    constr:    0.0000
     atom:    3    charge:   12.8417    magn:    1.3230    constr:    0.0000
     atom:    4    charge:   12.7748    magn:    2.6499    constr:    0.0000
     atom:    5    charge:    4.0890    magn:   -0.0222    constr:    0.0000

     total cpu time spent up to now is      112.3 secs

     total energy              =   -1345.15852830 Ry
     Harris-Foulkes estimate   =   -1345.16674649 Ry
     estimated scf accuracy    <       0.00118166 Ry

     total magnetization       =     8.19 Bohr mag/cell
     absolute magnetization    =     8.57 Bohr mag/cell

     iteration # 13     ecut=   110.00 Ry     beta=0.70
     Davidson diagonalization with overlap
     ethr =  1.71E-06,  avg # of iterations =  3.4

     negative rho (up, down):  0.000E+00 2.002E-04
 
     Magnetic moment per site:
     atom:    1    charge:   12.8438    magn:    1.2233    constr:    0.0000
     atom:    2    charge:   12.8438    magn:    1.2233    constr:    0.0000
     atom:    3    charge:   12.8438    magn:    1.2233    constr:    0.0000
     atom:    4    charge:   12.7747    magn:    2.6457    constr:    0.0000
     atom:    5    charge:    4.0847    magn:   -0.0320    constr:    0.0000

     total cpu time spent up to now is      123.6 secs

     total energy              =   -1345.16607433 Ry
     Harris-Foulkes estimate   =   -1345.16740201 Ry
     estimated scf accuracy    <       0.00055908 Ry

     total magnetization       =     7.24 Bohr mag/cell
     absolute magnetization    =     7.61 Bohr mag/cell

     iteration # 14     ecut=   110.00 Ry     beta=0.70
     Davidson diagonalization with overlap
     ethr =  8.10E-07,  avg # of iterations =  2.6

     negative rho (up, down):  0.000E+00 2.019E-04
 
     Magnetic moment per site:
     atom:    1    charge:   12.8426    magn:    1.3006    constr:    0.0000
     atom:    2    charge:   12.8426    magn:    1.3006    constr:    0.0000
     atom:    3    charge:   12.8426    magn:    1.3006    constr:    0.0000
     atom:    4    charge:   12.7748    magn:    2.6533    constr:    0.0000
     atom:    5    charge:    4.0868    magn:   -0.0265    constr:    0.0000

     total cpu time spent up to now is      133.1 secs

     total energy              =   -1345.16693559 Ry
     Harris-Foulkes estimate   =   -1345.16668828 Ry
     estimated scf accuracy    <       0.00121447 Ry

     total magnetization       =     7.00 Bohr mag/cell
     absolute magnetization    =     7.37 Bohr mag/cell

     iteration # 15     ecut=   110.00 Ry     beta=0.70
     Davidson diagonalization with overlap
     ethr =  8.10E-07,  avg # of iterations =  2.1

     negative rho (up, down):  0.000E+00 2.025E-04
 
     Magnetic moment per site:
     atom:    1    charge:   12.8429    magn:    1.3075    constr:    0.0000
     atom:    2    charge:   12.8429    magn:    1.3075    constr:    0.0000
     atom:    3    charge:   12.8429    magn:    1.3075    constr:    0.0000
     atom:    4    charge:   12.7753    magn:    2.6624    constr:    0.0000
     atom:    5    charge:    4.0862    magn:   -0.0304    constr:    0.0000

     total cpu time spent up to now is      140.9 secs

     total energy              =   -1345.16743535 Ry
     Harris-Foulkes estimate   =   -1345.16731655 Ry
     estimated scf accuracy    <       0.00069539 Ry

     total magnetization       =     7.19 Bohr mag/cell
     absolute magnetization    =     7.56 Bohr mag/cell

     iteration # 16     ecut=   110.00 Ry     beta=0.70
     Davidson diagonalization with overlap
     ethr =  8.10E-07,  avg # of iterations =  1.0

     negative rho (up, down):  0.000E+00 2.549E-04
 
     Magnetic moment per site:
     atom:    1    charge:   12.8392    magn:    1.4898    constr:    0.0000
     atom:    2    charge:   12.8392    magn:    1.4898    constr:    0.0000
     atom:    3    charge:   12.8392    magn:    1.4898    constr:    0.0000
     atom:    4    charge:   12.7747    magn:    2.6844    constr:    0.0000
     atom:    5    charge:    4.0914    magn:   -0.0184    constr:    0.0000

     total cpu time spent up to now is      148.1 secs

     total energy              =   -1345.16564386 Ry
     Harris-Foulkes estimate   =   -1345.16745381 Ry
     estimated scf accuracy    <       0.00063238 Ry

     total magnetization       =     7.22 Bohr mag/cell
     absolute magnetization    =     7.59 Bohr mag/cell

     iteration # 17     ecut=   110.00 Ry     beta=0.70
     Davidson diagonalization with overlap
     ethr =  8.10E-07,  avg # of iterations =  3.1

     negative rho (up, down):  0.000E+00 2.571E-04
 
     Magnetic moment per site:
     atom:    1    charge:   12.8391    magn:    1.4941    constr:    0.0000
     atom:    2    charge:   12.8391    magn:    1.4941    constr:    0.0000
     atom:    3    charge:   12.8391    magn:    1.4941    constr:    0.0000
     atom:    4    charge:   12.7747    magn:    2.6829    constr:    0.0000
     atom:    5    charge:    4.0918    magn:   -0.0174    constr:    0.0000

     total cpu time spent up to now is      158.9 secs

     total energy              =   -1345.16781284 Ry
     Harris-Foulkes estimate   =   -1345.16781708 Ry
     estimated scf accuracy    <       0.00064635 Ry

     total magnetization       =     7.71 Bohr mag/cell
     absolute magnetization    =     8.06 Bohr mag/cell

     iteration # 18     ecut=   110.00 Ry     beta=0.70
     Davidson diagonalization with overlap
     ethr =  8.10E-07,  avg # of iterations =  1.0

     negative rho (up, down):  0.000E+00 2.853E-04
 
     Magnetic moment per site:
     atom:    1    charge:   12.8371    magn:    1.5480    constr:    0.0000
     atom:    2    charge:   12.8371    magn:    1.5480    constr:    0.0000
     atom:    3    charge:   12.8371    magn:    1.5480    constr:    0.0000
     atom:    4    charge:   12.7744    magn:    2.6700    constr:    0.0000
     atom:    5    charge:    4.0962    magn:   -0.0049    constr:    0.0000

     total cpu time spent up to now is      166.0 secs

     total energy              =   -1345.16754598 Ry
     Harris-Foulkes estimate   =   -1345.16781479 Ry
     estimated scf accuracy    <       0.00058583 Ry

     total magnetization       =     7.72 Bohr mag/cell
     absolute magnetization    =     8.07 Bohr mag/cell

     iteration # 19     ecut=   110.00 Ry     beta=0.70
     Davidson diagonalization with overlap
     ethr =  8.10E-07,  avg # of iterations =  2.0

     negative rho (up, down):  0.000E+00 2.900E-04
 
     Magnetic moment per site:
     atom:    1    charge:   12.8365    magn:    1.5583    constr:    0.0000
     atom:    2    charge:   12.8365    magn:    1.5583    constr:    0.0000
     atom:    3    charge:   12.8365    magn:    1.5583    constr:    0.0000
     atom:    4    charge:   12.7743    magn:    2.6650    constr:    0.0000
     atom:    5    charge:    4.0972    magn:   -0.0018    constr:    0.0000

     total cpu time spent up to now is      173.8 secs

     total energy              =   -1345.16773709 Ry
     Harris-Foulkes estimate   =   -1345.16775543 Ry
     estimated scf accuracy    <       0.00012258 Ry

     total magnetization       =     7.84 Bohr mag/cell
     absolute magnetization    =     8.19 Bohr mag/cell

     iteration # 20     ecut=   110.00 Ry     beta=0.70
     Davidson diagonalization with overlap
     ethr =  1.78E-07,  avg # of iterations =  1.3

     negative rho (up, down):  0.000E+00 2.408E-04
 
     Magnetic moment per site:
     atom:    1    charge:   12.8376    magn:    1.4752    constr:    0.0000
     atom:    2    charge:   12.8376    magn:    1.4752    constr:    0.0000
     atom:    3    charge:   12.8376    magn:    1.4752    constr:    0.0000
     atom:    4    charge:   12.7739    magn:    2.6540    constr:    0.0000
     atom:    5    charge:    4.0949    magn:   -0.0055    constr:    0.0000

     total cpu time spent up to now is      181.6 secs

     total energy              =   -1345.16745163 Ry
     Harris-Foulkes estimate   =   -1345.16774681 Ry
     estimated scf accuracy    <       0.00011713 Ry

     total magnetization       =     7.86 Bohr mag/cell
     absolute magnetization    =     8.21 Bohr mag/cell

     iteration # 21     ecut=   110.00 Ry     beta=0.70
     Davidson diagonalization with overlap
     ethr =  1.70E-07,  avg # of iterations =  3.1

     negative rho (up, down):  0.000E+00 2.423E-04
 
     Magnetic moment per site:
     atom:    1    charge:   12.8376    magn:    1.4787    constr:    0.0000
     atom:    2    charge:   12.8376    magn:    1.4787    constr:    0.0000
     atom:    3    charge:   12.8376    magn:    1.4787    constr:    0.0000
     atom:    4    charge:   12.7741    magn:    2.6541    constr:    0.0000
     atom:    5    charge:    4.0951    magn:   -0.0048    constr:    0.0000

     total cpu time spent up to now is      191.8 secs

     total energy              =   -1345.16787339 Ry
     Harris-Foulkes estimate   =   -1345.16787430 Ry
     estimated scf accuracy    <       0.00001520 Ry

     total magnetization       =     7.65 Bohr mag/cell
     absolute magnetization    =     8.00 Bohr mag/cell

     iteration # 22     ecut=   110.00 Ry     beta=0.70
     Davidson diagonalization with overlap
     ethr =  2.20E-08,  avg # of iterations =  1.1

     negative rho (up, down):  0.000E+00 2.470E-04
 
     Magnetic moment per site:
     atom:    1    charge:   12.8377    magn:    1.4856    constr:    0.0000
     atom:    2    charge:   12.8377    magn:    1.4856    constr:    0.0000
     atom:    3    charge:   12.8377    magn:    1.4856    constr:    0.0000
     atom:    4    charge:   12.7741    magn:    2.6536    constr:    0.0000
     atom:    5    charge:    4.0955    magn:   -0.0034    constr:    0.0000

     total cpu time spent up to now is      199.0 secs

     total energy              =   -1345.16787073 Ry
     Harris-Foulkes estimate   =   -1345.16787439 Ry
     estimated scf accuracy    <       0.00000955 Ry

     total magnetization       =     7.66 Bohr mag/cell
     absolute magnetization    =     8.01 Bohr mag/cell

     iteration # 23     ecut=   110.00 Ry     beta=0.70
     Davidson diagonalization with overlap
     ethr =  1.38E-08,  avg # of iterations =  2.2

     negative rho (up, down):  0.000E+00 2.473E-04
 
     Magnetic moment per site:
     atom:    1    charge:   12.8377    magn:    1.4864    constr:    0.0000
     atom:    2    charge:   12.8377    magn:    1.4864    constr:    0.0000
     atom:    3    charge:   12.8377    magn:    1.4864    constr:    0.0000
     atom:    4    charge:   12.7742    magn:    2.6546    constr:    0.0000
     atom:    5    charge:    4.0953    magn:   -0.0040    constr:    0.0000

     total cpu time spent up to now is      207.7 secs

     total energy              =   -1345.16787505 Ry
     Harris-Foulkes estimate   =   -1345.16787516 Ry
     estimated scf accuracy    <       0.00000300 Ry

     total magnetization       =     7.68 Bohr mag/cell
     absolute magnetization    =     8.03 Bohr mag/cell

     iteration # 24     ecut=   110.00 Ry     beta=0.70
     Davidson diagonalization with overlap
     ethr =  4.34E-09,  avg # of iterations =  1.2

     negative rho (up, down):  0.000E+00 2.473E-04
 
     Magnetic moment per site:
     atom:    1    charge:   12.8378    magn:    1.4864    constr:    0.0000
     atom:    2    charge:   12.8378    magn:    1.4864    constr:    0.0000
     atom:    3    charge:   12.8378    magn:    1.4864    constr:    0.0000
     atom:    4    charge:   12.7742    magn:    2.6544    constr:    0.0000
     atom:    5    charge:    4.0953    magn:   -0.0039    constr:    0.0000

     total cpu time spent up to now is      215.0 secs

     total energy              =   -1345.16787551 Ry
     Harris-Foulkes estimate   =   -1345.16787549 Ry
     estimated scf accuracy    <       0.00000034 Ry

     total magnetization       =     7.68 Bohr mag/cell
     absolute magnetization    =     8.03 Bohr mag/cell

     iteration # 25     ecut=   110.00 Ry     beta=0.70
     Davidson diagonalization with overlap
     ethr =  4.90E-10,  avg # of iterations =  2.4

     negative rho (up, down):  0.000E+00 2.474E-04
 
     Magnetic moment per site:
     atom:    1    charge:   12.8378    magn:    1.4869    constr:    0.0000
     atom:    2    charge:   12.8378    magn:    1.4869    constr:    0.0000
     atom:    3    charge:   12.8378    magn:    1.4869    constr:    0.0000
     atom:    4    charge:   12.7742    magn:    2.6540    constr:    0.0000
     atom:    5    charge:    4.0953    magn:   -0.0038    constr:    0.0000

     total cpu time spent up to now is      223.2 secs

     total energy              =   -1345.16787559 Ry
     Harris-Foulkes estimate   =   -1345.16787557 Ry
     estimated scf accuracy    <       0.00000003 Ry

     total magnetization       =     7.68 Bohr mag/cell
     absolute magnetization    =     8.03 Bohr mag/cell

     iteration # 26     ecut=   110.00 Ry     beta=0.70
     Davidson diagonalization with overlap
     ethr =  4.34E-11,  avg # of iterations =  2.7

     negative rho (up, down):  0.000E+00 2.478E-04
 
     Magnetic moment per site:
     atom:    1    charge:   12.8378    magn:    1.4876    constr:    0.0000
     atom:    2    charge:   12.8378    magn:    1.4876    constr:    0.0000
     atom:    3    charge:   12.8378    magn:    1.4876    constr:    0.0000
     atom:    4    charge:   12.7742    magn:    2.6540    constr:    0.0000
     atom:    5    charge:    4.0954    magn:   -0.0037    constr:    0.0000

     total cpu time spent up to now is      233.4 secs

     total energy              =   -1345.16787560 Ry
     Harris-Foulkes estimate   =   -1345.16787562 Ry
     estimated scf accuracy    <       0.00000004 Ry

     total magnetization       =     7.68 Bohr mag/cell
     absolute magnetization    =     8.03 Bohr mag/cell

     iteration # 27     ecut=   110.00 Ry     beta=0.70
     Davidson diagonalization with overlap
     ethr =  4.34E-11,  avg # of iterations =  2.7

     negative rho (up, down):  0.000E+00 2.478E-04
 
     Magnetic moment per site:
     atom:    1    charge:   12.8378    magn:    1.4877    constr:    0.0000
     atom:    2    charge:   12.8378    magn:    1.4877    constr:    0.0000
     atom:    3    charge:   12.8378    magn:    1.4877    constr:    0.0000
     atom:    4    charge:   12.7742    magn:    2.6539    constr:    0.0000
     atom:    5    charge:    4.0954    magn:   -0.0037    constr:    0.0000

     total cpu time spent up to now is      242.4 secs

     End of self-consistent calculation

 ------ SPIN UP ------------


          k = 0.0000 0.0000 0.0000 (  6619 PWs)   bands (ev):

   -69.9376 -69.2601 -69.2058 -69.2058 -35.9983 -35.9983 -35.9983 -35.6161
   -35.6161 -35.6161 -35.1588 -35.1588 -35.1588 -35.1522 -35.1522 -35.1522
     0.3457  11.4282  13.3305  13.3305  13.3305  13.8398  13.8398  14.1052
    14.1052  14.1052  16.0924  16.0924  16.0924  17.1985  17.1985  17.8463
    17.8463  18.3986  18.3986  18.3986  18.4661  18.4661  18.4661  18.4677
    21.8874  23.7554

          k = 0.0000 0.0000 0.1111 (  6527 PWs)   bands (ev):

   -69.9375 -69.2587 -69.2072 -69.2058 -35.9973 -35.9973 -35.9969 -35.6149
   -35.6149 -35.6139 -35.1598 -35.1598 -35.1591 -35.1570 -35.1534 -35.1534
     0.4154  11.4855  12.9273  13.1105  13.1105  13.9191  13.9308  14.1575
    14.3443  14.3443  16.0279  16.1464  16.1464  17.2216  17.2574  17.8148
    17.8703  18.3141  18.3141  18.3985  18.3985  18.3988  18.4067  18.4650
    21.9635  23.2364

          k = 0.0000 0.0000 0.2222 (  6527 PWs)   bands (ev):

   -69.9372 -69.2548 -69.2114 -69.2057 -35.9948 -35.9948 -35.9934 -35.6119
   -35.6119 -35.6079 -35.1696 -35.1627 -35.1627 -35.1598 -35.1562 -35.1562
     0.6004  11.3379  12.5044  12.7674  12.7674  14.0813  14.1356  14.3092
    14.7511  14.7511  15.8451  16.2724  16.2724  17.1946  17.2859  17.7246
    17.7688  17.9545  17.9545  18.2396  18.3991  18.4019  18.4019  18.4622
    22.1774  22.5170

          k = 0.0000 0.0000 0.3333 (  6515 PWs)   bands (ev):

   -69.9369 -69.2491 -69.2174 -69.2057 -35.9919 -35.9919 -35.9896 -35.6084
   -35.6084 -35.6004 -35.1845 -35.1664 -35.1664 -35.1607 -35.1591 -35.1591
     0.8283  10.6698  12.4975  12.4975  12.8460  14.1978  14.4176  14.5425
    15.1429  15.1429  15.5763  16.3649  16.3649  16.9840  17.3214  17.3616
    17.5817  17.5817  17.6128  18.0175  18.3996  18.4149  18.4149  18.4594
    22.0442  22.5715

          k = 0.0000 0.0000 0.4444 (  6520 PWs)   bands (ev):

   -69.9367 -69.2438 -69.2229 -69.2057 -35.9900 -35.9900 -35.9870 -35.6060
   -35.6060 -35.5951 -35.1947 -35.1690 -35.1690 -35.1612 -35.1608 -35.1608
     0.9891  10.1830  12.3532  12.3532  13.4007  14.1249  14.6320  14.8081
    15.2875  15.4350  15.4350  16.3337  16.3337  16.7323  16.9440  17.3461
    17.3746  17.3746  17.6403  17.8048  18.3998  18.4301  18.4301  18.4577
    21.9109  22.7893

          k = 0.0000 0.1111 0.1111 (  6543 PWs)   bands (ev):

   -69.9374 -69.2574 -69.2079 -69.2065 -35.9976 -35.9963 -35.9946 -35.6260
   -35.6137 -35.5995 -35.1701 -35.1608 -35.1604 -35.1571 -35.1547 -35.1483
     0.4852  11.5394  12.6987  12.8570  12.9539  13.9963  14.0041  14.2126
    14.4872  14.5137  16.0042  16.1630  16.1929  17.2490  17.2730  17.7262
    17.7835  18.2263  18.2642  18.3184  18.3247  18.4104  18.4794  18.5428
    22.0241  23.4382

          k = 0.0000 0.1111 0.2222 (  6542 PWs)   bands (ev):

   -69.9371 -69.2535 -69.2117 -69.2068 -35.9961 -35.9939 -35.9914 -35.6336
   -35.6105 -35.5836 -35.1855 -35.1653 -35.1635 -35.1583 -35.1577 -35.1440
     0.6705  11.3591  12.2606  12.6632  12.6766  14.1574  14.2069  14.3626
    14.8146  14.8591  15.8420  16.2816  16.2892  17.1601  17.3236  17.4383
    17.5845  17.9117  18.1402  18.1985  18.2423  18.3841  18.5587  18.6826
    22.2027  22.6703

          k = 0.0000 0.1111 0.3333 (  6532 PWs)   bands (ev):

   -69.9368 -69.2480 -69.2175 -69.2068 -35.9933 -35.9911 -35.9887 -35.6373
   -35.6068 -35.5696 -35.2007 -35.1703 -35.1671 -35.1607 -35.1602 -35.1418
     0.8988  10.6616  12.1386  12.4162  12.9460  14.2828  14.4862  14.5916
    15.1753  15.2148  15.5806  16.2920  16.3938  16.9297  17.0979  17.2660
    17.4906  17.5578  17.8567  18.0737  18.1800  18.3777  18.6303  18.6762
    22.2618  22.4504

          k = 0.0000 0.1111 0.4444 (  6508 PWs)   bands (ev):

   -69.9367 -69.2427 -69.2229 -69.2068 -35.9908 -35.9893 -35.9877 -35.6386
   -35.6044 -35.5612 -35.2104 -35.1735 -35.1697 -35.1625 -35.1616 -35.1409
     1.0601  10.1715  12.0378  12.2808  13.4694  14.2195  14.7013  14.8579
    15.2909  15.4590  15.4817  16.1379  16.3915  16.6633  16.8642  17.2558
    17.3558  17.4658  17.7083  17.8998  18.1438  18.3756  18.6542  18.6762
    22.1431  22.6123

          k = 0.0000 0.2222 0.2222 (  6514 PWs)   bands (ev):

   -69.9369 -69.2499 -69.2134 -69.2089 -35.9963 -35.9917 -35.9892 -35.6521
   -35.6070 -35.5581 -35.2068 -35.1679 -35.1658 -35.1613 -35.1600 -35.1304
     0.8567  11.2949  11.5677  12.4410  12.7897  14.3579  14.3839  14.5053
    15.0145  15.1105  15.7601  16.2753  16.3632  17.0229  17.0280  17.3108
    17.4589  17.7428  18.0347  18.0889  18.2581  18.3352  18.7090  18.9947
    22.1161  22.9987

          k = 0.0000 0.2222 0.3333 (  6531 PWs)   bands (ev):

   -69.9367 -69.2446 -69.2180 -69.2098 -35.9949 -35.9891 -35.9886 -35.6645
   -35.6029 -35.5374 -35.2249 -35.1708 -35.1691 -35.1648 -35.1623 -35.1214
     1.0866  10.6286  11.3679  12.2334  13.1804  14.5166  14.6615  14.7166
    15.2790  15.3908  15.5584  16.0666  16.4963  16.7581  16.8088  17.1025
    17.4759  17.6361  17.8033  17.9583  18.1971  18.3523  18.8362  19.0296
    21.9458  22.8236

          k = 0.0000 0.2222 0.4444 (  6529 PWs)   bands (ev):

   -69.9365 -69.2394 -69.2230 -69.2100 -35.9926 -35.9896 -35.9875 -35.6706
   -35.6002 -35.5257 -35.2353 -35.1726 -35.1717 -35.1668 -35.1638 -35.1169
     1.2494  10.1370  11.3033  12.1148  13.6800  14.4694  14.8912  14.9682
    15.2997  15.4960  15.5998  15.8229  16.5521  16.5539  16.6116  17.0971
    17.2982  17.5291  17.8753  17.8801  18.1780  18.2118  18.9129  18.9633
    21.9129  22.7458

          k = 0.0000 0.3333 0.3333 (  6512 PWs)   bands (ev):

   -69.9365 -69.2397 -69.2196 -69.2132 -35.9954 -35.9898 -35.9868 -35.6840
   -35.5983 -35.5121 -35.2444 -35.1716 -35.1707 -35.1694 -35.1648 -35.1065
     1.3191  10.5584  10.5961  12.0539  13.5743  14.8387  14.8438  14.8886
    15.4141  15.4606  15.5953  15.7409  16.5554  16.6485  16.6583  16.8992
    17.3286  17.6096  17.7587  17.9057  18.0440  18.5482  19.0047  19.1749
    21.2663  23.3557

          k = 0.0000 0.3333 0.4444 (  6508 PWs)   bands (ev):

   -69.9364 -69.2346 -69.2232 -69.2148 -35.9943 -35.9920 -35.9854 -35.6940
   -35.5952 -35.4980 -35.2553 -35.1738 -35.1717 -35.1707 -35.1665 -35.0988
     1.4841  10.0902  10.5353  11.9486  14.0225  14.7994  15.0854  15.1287
    15.2957  15.5101  15.5586  15.7467  16.4020  16.4744  16.7783  16.8322
    17.2037  17.4002  17.6213  17.9744  18.1741  18.5813  19.1034  19.1302
    20.9082  23.4489

          k = 0.0000 0.4444 0.4444 (  6510 PWs)   bands (ev):

   -69.9363 -69.2290 -69.2236 -69.2199 -35.9949 -35.9941 -35.9840 -35.7063
   -35.5920 -35.4829 -35.2662 -35.1753 -35.1750 -35.1694 -35.1684 -35.0893
     1.6510  10.0559  10.0564  11.8499  14.3683  15.0251  15.1863  15.2542
    15.2594  15.4093  15.5749  15.8594  16.3142  16.3960  16.5775  16.9874
    17.1142  17.2352  17.4101  17.8580  18.3842  18.9447  19.1755  19.2134
    20.1307  23.9984

          k = 0.1111 0.1111 0.1111 (  6538 PWs)   bands (ev):

   -69.9373 -69.2561 -69.2079 -69.2079 -35.9969 -35.9969 -35.9924 -35.6382
   -35.5984 -35.5984 -35.1732 -35.1694 -35.1694 -35.1504 -35.1486 -35.1486
     0.5550  11.5895  12.5639  12.5639  12.8357  14.0722  14.0722  14.3899
    14.3899  14.7344  15.9889  16.2026  16.2026  17.2671  17.2671  17.6646
    17.6646  17.9915  18.1237  18.3445  18.3445  18.4202  18.6413  18.6413
    22.0743  23.5628

          k = 0.1111 0.1111 0.2222 (  6530 PWs)   bands (ev):

   -69.9370 -69.2523 -69.2119 -69.2079 -35.9959 -35.9951 -35.9892 -35.6503
   -35.5955 -35.5780 -35.1898 -35.1798 -35.1711 -35.1507 -35.1457 -35.1434
     0.7407  11.3711  12.1433  12.2980  12.7589  14.2328  14.2779  14.4628
    14.7624  15.0135  15.8445  16.2851  16.2956  17.1766  17.2943  17.3843
    17.4083  17.7638  17.9273  18.2179  18.3456  18.3567  18.8023  18.8331
    22.2208  22.8350

          k = 0.1111 0.1111 0.3333 (  6538 PWs)   bands (ev):

   -69.9368 -69.2468 -69.2176 -69.2079 -35.9931 -35.9931 -35.9872 -35.6579
   -35.5922 -35.5606 -35.2060 -35.1885 -35.1722 -35.1524 -35.1464 -35.1393
     0.9696  10.6463  12.0642  12.0770  13.0384  14.3640  14.5551  14.6652
    15.1713  15.2806  15.5911  16.2784  16.3447  16.9173  17.0711  17.1119
    17.4313  17.6066  17.7045  18.0900  18.2506  18.3344  18.6815  18.9927
    22.4189  22.4435

          k = 0.1111 0.1111 0.4444 (  6514 PWs)   bands (ev):

   -69.9366 -69.2416 -69.2230 -69.2078 -35.9917 -35.9898 -35.9874 -35.6612
   -35.5899 -35.5504 -35.2160 -35.1934 -35.1728 -35.1536 -35.1479 -35.1373
     1.1314  10.1544  11.9342  12.0079  13.5366  14.3075  14.7714  14.9234
    15.3013  15.4552  15.5308  16.0761  16.2785  16.6264  16.9677  17.0974
    17.3344  17.4995  17.7096  17.9305  18.1848  18.3241  18.5243  19.0842
    22.3370  22.5623

          k = 0.1111 0.2222 0.2222 (  6521 PWs)   bands (ev):

   -69.9369 -69.2488 -69.2134 -69.2100 -35.9963 -35.9942 -35.9868 -35.6705
   -35.5863 -35.5572 -35.2079 -35.1849 -35.1814 -35.1462 -35.1453 -35.1306
     0.9275  11.2972  11.4892  12.0700  12.8957  14.4284  14.4569  14.6315
    14.9393  15.2090  15.7706  16.2701  16.3405  17.0320  17.0921  17.2146
    17.3961  17.5445  17.7226  18.2484  18.2501  18.3221  19.0780  19.1108
    22.1896  23.1066

          k = 0.1111 0.2222 0.3333 (  6534 PWs)   bands (ev):

   -69.9366 -69.2436 -69.2180 -69.2107 -35.9953 -35.9927 -35.9861 -35.6848
   -35.5819 -35.5359 -35.2252 -35.1935 -35.1835 -35.1472 -35.1440 -35.1214
     1.1582  10.5982  11.3114  11.9149  13.2658  14.5777  14.7284  14.8339
    15.2640  15.3767  15.5840  16.1026  16.3724  16.7655  16.9128  17.0318
    17.4423  17.4785  17.6149  18.1523  18.1980  18.2548  18.9970  19.3340
    22.0571  22.8863

          k = 0.1111 0.2222 0.4444 (  6518 PWs)   bands (ev):

   -69.9365 -69.2386 -69.2230 -69.2108 -35.9937 -35.9915 -35.9870 -35.6919
   -35.5793 -35.5234 -35.2352 -35.1991 -35.1840 -35.1480 -35.1440 -35.1168
     1.3217  10.1074  11.2413  11.8219  13.7359  14.5294  14.9599  15.0713
    15.3036  15.4788  15.6040  15.8652  16.2993  16.5438  16.8773  16.9678
    17.3028  17.4484  17.7967  18.0506  18.1012  18.2336  18.7432  19.4755
    22.0153  22.8358

          k = 0.1111 0.3333 0.3333 (  6503 PWs)   bands (ev):

   -69.9364 -69.2389 -69.2196 -69.2140 -35.9961 -35.9927 -35.9862 -35.7049
   -35.5764 -35.5116 -35.2434 -35.1950 -35.1922 -35.1453 -35.1439 -35.1066
     1.3919  10.5244  10.5394  11.7570  13.6362  14.8227  14.9042  15.0690
    15.3300  15.4723  15.5698  15.9052  16.3670  16.6364  16.7530  16.9588
    17.3281  17.3356  17.7957  18.0117  18.1090  18.3399  19.2238  19.4682
    21.3619  23.2565

          k = 0.1111 0.3333 0.4444 (  6499 PWs)   bands (ev):

   -69.9363 -69.2340 -69.2232 -69.2153 -35.9954 -35.9936 -35.9866 -35.7155
   -35.5734 -35.4976 -35.2536 -35.1993 -35.1934 -35.1451 -35.1439 -35.0989
     1.5580  10.0489  10.4834  11.6625  14.0411  14.7951  15.0913  15.2866
    15.2947  15.5096  15.5625  15.9177  16.2900  16.4465  16.7285  16.9213
    17.2032  17.3111  17.8570  17.9768  18.0306  18.4893  19.0173  19.6596
    20.9541  23.3826

          k = 0.1111 0.4444 0.4444 (  6493 PWs)   bands (ev):

   -69.9362 -69.2287 -69.2236 -69.2202 -35.9961 -35.9954 -35.9863 -35.7281
   -35.5702 -35.4828 -35.2639 -35.1992 -35.1988 -35.1442 -35.1439 -35.0893
     1.7262  10.0076  10.0095  11.5677  14.3233  14.9819  15.0456  15.2048
    15.5463  15.5522  15.6302  16.0537  16.2562  16.3621  16.5050  16.9241
    17.1744  17.2219  17.6750  17.9347  18.0858  18.8782  19.1707  19.7004
    20.1199  23.7365

          k = 0.2222 0.2222 0.2222 (  6547 PWs)   bands (ev):

   -69.9367 -69.2456 -69.2134 -69.2134 -35.9963 -35.9963 -35.9851 -35.6962
   -35.5549 -35.5549 -35.2154 -35.1981 -35.1981 -35.1332 -35.1332 -35.1291
     1.1159  11.2710  11.3113  11.3113  13.1134  14.6226  14.6226  14.9422
    14.9422  15.3043  15.7320  16.2797  16.2797  16.9694  16.9694  17.2827
    17.2827  17.2925  17.4275  18.2288  18.2288  18.3821  19.4149  19.4149
    22.2836  23.0623

          k = 0.2222 0.2222 0.3333 (  6509 PWs)   bands (ev):

   -69.9365 -69.2408 -69.2182 -69.2133 -35.9962 -35.9961 -35.9857 -35.7153
   -35.5522 -35.5289 -35.2294 -35.2110 -35.2007 -35.1331 -35.1254 -35.1196
     1.3493  10.5170  11.1355  11.2356  13.4789  14.7340  14.8922  15.1009
    15.2920  15.2958  15.6691  16.1482  16.2343  16.7245  16.7864  17.1819
    17.1849  17.3777  17.5209  18.1619  18.2200  18.3167  19.2421  19.7643
    22.2488  22.6939

          k = 0.2222 0.2222 0.4444 (  6513 PWs)   bands (ev):

   -69.9364 -69.2361 -69.2231 -69.2133 -35.9961 -35.9944 -35.9878 -35.7253
   -35.5504 -35.5142 -35.2384 -35.2181 -35.2010 -35.1337 -35.1220 -35.1141
     1.5150  10.0326  11.0318  11.1937  13.8848  14.6648  15.1477  15.1483
    15.4034  15.4928  15.6119  15.9869  16.1839  16.4978  16.7716  17.0067
    17.1471  17.5604  17.7235  18.0969  18.1969  18.2425  18.8111  20.0146
    22.2603  22.3758

          k = 0.2222 0.3333 0.3333 (  6510 PWs)   bands (ev):

   -69.9364 -69.2367 -69.2196 -69.2162 -35.9979 -35.9971 -35.9876 -35.7392
   -35.5396 -35.5104 -35.2413 -35.2162 -35.2128 -35.1243 -35.1228 -35.1068
     1.5867  10.4049  10.4373  11.0623  13.7834  14.8930  14.9975  15.1538
    15.4041  15.4574  15.8018  16.1027  16.2135  16.6141  16.6345  16.9620
    17.3042  17.3493  17.6464  18.1532  18.2326  18.2824  19.4028  19.9186
    21.6315  22.6893

          k = 0.2222 0.3333 0.4444 (  6519 PWs)   bands (ev):

   -69.9363 -69.2323 -69.2232 -69.2170 -35.9983 -35.9972 -35.9901 -35.7519
   -35.5363 -35.4962 -35.2497 -35.2221 -35.2142 -35.1238 -35.1189 -35.0989
     1.7559   9.9480  10.3579  10.9829  14.0724  14.8050  15.0274  15.2239
    15.4904  15.7150  15.8753  16.1621  16.1879  16.4236  16.6204  16.8039
    17.2863  17.5125  17.7758  18.1066  18.1699  18.3884  19.0269  20.2484
    21.0541  22.6441

          k = 0.2222 0.4444 0.4444 (  6489 PWs)   bands (ev):

   -69.9362 -69.2279 -69.2236 -69.2209 -35.9991 -35.9988 -35.9922 -35.7663
   -35.5319 -35.4826 -35.2579 -35.2218 -35.2212 -35.1190 -35.1187 -35.0893
     1.9281   9.8899   9.8972  10.8926  14.2096  14.8981  14.9499  15.0892
    15.6726  16.0018  16.1139  16.2024  16.2636  16.3991  16.5123  16.6597
    17.4071  17.4420  17.8217  17.9833  18.1014  18.7648  19.1473  19.9410
    20.4398  22.9022

          k = 0.3333 0.3333 0.3333 (  6497 PWs)   bands (ev):

   -69.9363 -69.2334 -69.2195 -69.2195 -36.0000 -36.0000 -35.9912 -35.7669
   -35.5090 -35.5090 -35.2424 -35.2280 -35.2280 -35.1092 -35.1092 -35.1047
     1.8297  10.2649  10.2649  10.4020  13.9571  14.9421  14.9947  14.9947
    15.6697  15.6697  16.1354  16.2181  16.2181  16.5754  16.5754  16.7369
    17.4738  17.5589  17.5589  18.2042  18.2042  18.3426  19.7540  19.7540
    21.9453  21.9453

          k = 0.3333 0.3333 0.4444 (  6520 PWs)   bands (ev):

   -69.9362 -69.2297 -69.2232 -69.2195 -36.0013 -36.0005 -35.9949 -35.7819
   -35.5081 -35.4921 -35.2474 -35.2361 -35.2294 -35.1081 -35.1015 -35.0976
     2.0038   9.8388  10.1796  10.3016  14.0869  14.8132  14.9326  15.0661
    15.7102  15.9690  16.2186  16.2973  16.3763  16.5447  16.5852  16.7068
    17.4822  17.6858  17.7215  18.2226  18.2882  18.3198  19.0866  20.2694
    21.0594  21.9463

          k = 0.3333 0.4444 0.4444 (  6530 PWs)   bands (ev):

   -69.9362 -69.2267 -69.2236 -69.2221 -36.0026 -36.0026 -35.9988 -35.7983
   -35.4999 -35.4824 -35.2514 -35.2380 -35.2373 -35.0999 -35.0996 -35.0893
     2.1820   9.7652   9.7774  10.1658  14.0872  14.8238  14.8781  14.9435
    15.8652  16.0635  16.2513  16.2632  16.4467  16.8100  16.8160  16.9892
    17.6314  17.6608  17.7498  18.2082  18.2605  18.5490  19.0743  19.6186
    20.9370  21.9309

          k = 0.4444 0.4444 0.4444 (  6539 PWs)   bands (ev):

   -69.9361 -69.2252 -69.2235 -69.2235 -36.0048 -36.0048 -36.0034 -35.8159
   -35.4822 -35.4822 -35.2478 -35.2456 -35.2456 -35.0896 -35.0896 -35.0888
     2.3654   9.6883   9.6883   9.7166  14.0123  14.7930  14.8335  14.8335
    16.0119  16.0119  16.2631  16.2631  16.3296  17.4467  17.4467  17.4749
    17.7444  17.7444  17.9043  18.3148  18.3148  18.3176  18.9399  18.9399
    21.2442  21.2442

 ------ SPIN DOWN ----------


          k = 0.0000 0.0000 0.0000 (  6619 PWs)   bands (ev):

   -67.3634 -67.3026 -67.3026 -66.5336 -33.9862 -33.9862 -33.9862 -33.2302
   -33.2302 -33.2302 -33.1915 -33.1915 -33.1915 -32.6388 -32.6388 -32.6388
     0.4465  11.7280  13.3949  13.3949  13.3949  15.2110  15.2110  15.5338
    15.5338  15.5338  18.0414  18.0414  18.0414  18.7053  18.7053  20.2819
    20.2819  20.2819  20.4085  20.4085  20.5096  20.8711  20.8711  20.8711
    23.0641  23.9616

          k = 0.0000 0.0000 0.1111 (  6527 PWs)   bands (ev):

   -67.3617 -67.3042 -67.3026 -66.5337 -33.9849 -33.9849 -33.9844 -33.2305
   -33.2291 -33.2291 -33.1926 -33.1926 -33.1918 -32.6417 -32.6400 -32.6400
     0.5154  11.7589  13.0945  13.2814  13.2814  15.2708  15.3103  15.5910
    15.6870  15.6870  17.9637  18.1038  18.1038  18.7117  18.8020  20.2362
    20.2362  20.2821  20.3481  20.3649  20.4468  20.6207  20.6207  20.8712
    23.1055  23.6081

          k = 0.0000 0.0000 0.2222 (  6527 PWs)   bands (ev):

   -67.3569 -67.3087 -67.3026 -66.5339 -33.9818 -33.9818 -33.9800 -33.2315
   -33.2266 -33.2266 -33.1954 -33.1954 -33.1927 -32.6490 -32.6430 -32.6430
     0.6982  11.5212  12.8550  13.0421  13.0421  15.3360  15.5860  15.7547
    16.0362  16.0362  17.7483  18.2776  18.2776  18.7212  18.8143  19.9891
    19.9891  20.1247  20.1432  20.2205  20.2205  20.2826  20.3769  20.8713
    23.0986  23.2971

          k = 0.0000 0.0000 0.3333 (  6515 PWs)   bands (ev):

   -67.3501 -67.3153 -67.3025 -66.5341 -33.9782 -33.9782 -33.9749 -33.2326
   -33.2237 -33.2237 -33.1985 -33.1985 -33.1936 -32.6574 -32.6465 -32.6465
     0.9226  10.8628  12.8212  12.8212  13.2721  15.2196  15.9599  15.9958
    16.4091  16.4091  17.4490  18.5185  18.5185  18.5897  18.7033  19.4688
    19.4688  19.7691  19.8266  20.0529  20.0529  20.2831  20.3219  20.8715
    22.9360  23.5445

          k = 0.0000 0.0000 0.4444 (  6520 PWs)   bands (ev):

   -67.3435 -67.3217 -67.3025 -66.5343 -33.9759 -33.9759 -33.9716 -33.2333
   -33.2219 -33.2219 -33.2005 -33.2005 -33.1943 -32.6630 -32.6489 -32.6489
     1.0805  10.3967  12.6957  12.6957  13.9350  14.7951  16.2272  16.2619
    16.6612  16.6612  17.1798  18.4159  18.6448  18.7640  18.7640  19.0535
    19.0535  19.4983  19.6040  19.9437  19.9437  20.2835  20.2858  20.8717
    22.9021  23.7484

          k = 0.0000 0.1111 0.1111 (  6543 PWs)   bands (ev):

   -67.3601 -67.3049 -67.3034 -66.5338 -33.9977 -33.9837 -33.9690 -33.2346
   -33.2281 -33.2273 -33.1972 -33.1937 -33.1862 -32.6454 -32.6412 -32.6396
     0.5844  11.7911  12.8623  13.1408  13.1803  15.3470  15.3815  15.6570
    15.8149  15.8157  17.9274  18.1266  18.1582  18.7528  18.7973  20.1521
    20.1888  20.2139  20.2575  20.3575  20.4306  20.5238  20.5315  20.7753
    23.1403  23.8588

          k = 0.0000 0.1111 0.2222 (  6542 PWs)   bands (ev):

   -67.3554 -67.3090 -67.3037 -66.5340 -34.0070 -33.9806 -33.9528 -33.2417
   -33.2255 -33.2250 -33.2005 -33.1965 -33.1810 -32.6518 -32.6443 -32.6418
     0.7673  11.5464  12.5129  12.9612  13.0787  15.4220  15.6388  15.8238
    16.1196  16.1289  17.7352  18.2831  18.2974  18.6952  18.7305  19.8204
    19.9572  19.9619  20.0879  20.2029  20.3617  20.3782  20.4822  20.7407
    23.2076  23.4018

          k = 0.0000 0.1111 0.3333 (  6532 PWs)   bands (ev):

   -67.3487 -67.3154 -67.3037 -66.5342 -34.0126 -33.9771 -33.9392 -33.2488
   -33.2226 -33.2225 -33.2027 -33.1996 -33.1777 -32.6578 -32.6478 -32.6455
     0.9920  10.8685  12.4343  12.7538  13.4035  15.3135  16.0060  16.0657
    16.4581  16.4687  17.4446  18.3448  18.4942  18.5280  18.6588  19.4841
    19.5005  19.7223  19.8942  19.9377  20.2483  20.3632  20.3847  20.7415
    23.1207  23.4637

          k = 0.0000 0.1111 0.4444 (  6508 PWs)   bands (ev):

   -67.3423 -67.3216 -67.3037 -66.5343 -34.0152 -33.9748 -33.9314 -33.2531
   -33.2208 -33.2206 -33.2041 -33.2016 -33.1763 -32.6612 -32.6502 -32.6484
     1.1502  10.3981  12.3632  12.6345  14.0101  14.9062  16.3029  16.3043
    16.6885  16.7034  17.1806  18.1825  18.3311  18.7860  18.7920  19.0854
    19.3049  19.5826  19.6177  19.8231  20.1433  20.3063  20.3649  20.7430
    23.1037  23.5999

          k = 0.0000 0.2222 0.2222 (  6514 PWs)   bands (ev):

   -67.3512 -67.3108 -67.3059 -66.5341 -34.0283 -33.9776 -33.9262 -33.2578
   -33.2252 -33.2226 -33.2042 -33.1993 -33.1666 -32.6556 -32.6475 -32.6417
     0.9507  11.4994  11.8225  12.7780  13.2520  15.6154  15.7744  15.9976
    16.3301  16.3640  17.6313  18.2678  18.3699  18.5066  18.5792  19.6841
    19.7683  19.8184  19.9192  20.0937  20.4441  20.4479  20.5160  20.6851
    23.1197  23.9539

          k = 0.0000 0.2222 0.3333 (  6531 PWs)   bands (ev):

   -67.3449 -67.3158 -67.3069 -66.5343 -34.0434 -33.9742 -33.9052 -33.2715
   -33.2250 -33.2194 -33.2085 -33.2025 -33.1554 -32.6574 -32.6511 -32.6442
     1.1765  10.8721  11.6513  12.5971  13.6639  15.5701  16.0782  16.2384
    16.5928  16.6220  17.4056  17.9801  18.2663  18.5841  18.5891  19.5188
    19.5371  19.7123  19.7454  19.8919  20.4111  20.4115  20.4842  20.6815
    23.0120  23.7350

          k = 0.0000 0.2222 0.4444 (  6529 PWs)   bands (ev):

   -67.3388 -67.3215 -67.3071 -66.5344 -34.0511 -33.9719 -33.8934 -33.2791
   -33.2238 -33.2173 -33.2123 -33.2045 -33.1495 -32.6567 -32.6536 -32.6474
     1.3357  10.3963  11.6143  12.4905  14.2186  15.2005  16.3421  16.4885
    16.7637  16.8474  17.1762  17.7085  18.1346  18.6121  18.8664  19.1783
    19.3757  19.6220  19.6731  19.8142  20.3958  20.4162  20.4756  20.5146
    23.0494  23.6578

          k = 0.0000 0.3333 0.3333 (  6512 PWs)   bands (ev):

   -67.3393 -67.3174 -67.3106 -66.5345 -34.0657 -33.9709 -33.8789 -33.2894
   -33.2273 -33.2158 -33.2156 -33.2057 -33.1377 -32.6551 -32.6549 -32.6444
     1.4040  10.8322  10.8972  12.4377  14.0758  15.8687  16.0263  16.4611
    16.7900  16.7995  17.2934  17.6320  18.0639  18.5082  18.7333  19.3591
    19.5309  19.5350  19.7318  19.9254  20.1464  20.5077  20.5140  20.8578
    22.5360  24.3139

          k = 0.0000 0.3333 0.4444 (  6508 PWs)   bands (ev):

   -67.3336 -67.3214 -67.3122 -66.5346 -34.0775 -33.9687 -33.8645 -33.2991
   -33.2276 -33.2217 -33.2136 -33.2077 -33.1281 -32.6574 -32.6517 -32.6464
     1.5649  10.3855  10.8479  12.3422  14.5572  15.6037  16.2208  16.6900
    16.8598  17.0669  17.1531  17.3664  17.9801  18.4029  18.9748  19.2078
    19.2669  19.5031  19.5854  20.0352  20.0966  20.5259  20.5917  20.7766
    22.3314  24.3173

          k = 0.0000 0.4444 0.4444 (  6510 PWs)   bands (ev):

   -67.3276 -67.3217 -67.3177 -66.5346 -34.0914 -33.9666 -33.8489 -33.3097
   -33.2298 -33.2282 -33.2111 -33.2099 -33.1165 -32.6600 -32.6480 -32.6463
     1.7271  10.3720  10.3760  12.2524  14.9229  15.9626  15.9827  16.8463
    16.9120  16.9146  17.1171  17.5511  17.9123  18.1336  19.0471  19.0623
    19.3049  19.4727  19.5339  19.7156  20.2633  20.5386  20.7788  20.8779
    21.8701  24.8271

          k = 0.1111 0.1111 0.1111 (  6538 PWs)   bands (ev):

   -67.3585 -67.3049 -67.3049 -66.5338 -34.0110 -33.9679 -33.9679 -33.2355
   -33.2303 -33.2303 -33.1951 -33.1951 -33.1823 -32.6492 -32.6405 -32.6405
     0.6534  11.8240  12.7773  12.7773  13.1937  15.4351  15.4351  15.7981
    15.7981  15.9802  17.8997  18.1711  18.1711  18.7711  18.7711  20.0060
    20.1170  20.1425  20.1425  20.4008  20.4008  20.4023  20.6837  20.6837
    23.1817  24.0630

          k = 0.1111 0.1111 0.2222 (  6530 PWs)   bands (ev):

   -67.3540 -67.3092 -67.3049 -66.5340 -34.0253 -33.9651 -33.9471 -33.2430
   -33.2375 -33.2282 -33.1950 -33.1923 -33.1766 -32.6549 -32.6428 -32.6423
     0.8365  11.5664  12.4038  12.5863  13.2018  15.5074  15.6960  15.9217
    16.1322  16.2326  17.7288  18.2749  18.2898  18.6807  18.6808  19.6478
    19.7886  19.9252  19.9930  20.2991  20.4495  20.4717  20.5385  20.7278
    23.2591  23.5528

          k = 0.1111 0.1111 0.3333 (  6538 PWs)   bands (ev):

   -67.3475 -67.3154 -67.3048 -66.5342 -34.0350 -33.9618 -33.9299 -33.2511
   -33.2451 -33.2235 -33.1933 -33.1920 -33.1724 -32.6589 -32.6468 -32.6454
     1.0616  10.8682  12.3700  12.3992  13.5158  15.4062  16.0634  16.1450
    16.4749  16.5170  17.4473  18.2335  18.3240  18.6239  18.6589  19.2553
    19.5478  19.7159  19.8099  20.1303  20.3510  20.3767  20.5342  20.6676
    23.2548  23.4795

          k = 0.1111 0.1111 0.4444 (  6514 PWs)   bands (ev):

   -67.3412 -67.3216 -67.3048 -66.5344 -34.0398 -33.9597 -33.9202 -33.2559
   -33.2498 -33.2194 -33.1934 -33.1918 -33.1702 -32.6598 -32.6515 -32.6472
     1.2202  10.3944  12.2895  12.3296  14.0816  15.0144  16.3637  16.3824
    16.6157  16.8205  17.1842  17.9901  18.2139  18.7876  18.8096  19.0186
    19.2802  19.6467  19.6877  20.0053  20.1069  20.3072  20.5546  20.6464
    23.2682  23.5695

          k = 0.1111 0.2222 0.2222 (  6521 PWs)   bands (ev):

   -67.3498 -67.3108 -67.3072 -66.5342 -34.0483 -33.9561 -33.9254 -33.2584
   -33.2397 -33.2385 -33.1901 -33.1870 -33.1652 -32.6589 -32.6446 -32.6419
     1.0204  11.5144  11.7666  12.3872  13.3764  15.7048  15.8412  16.1113
    16.3316  16.3852  17.6419  18.2111  18.2632  18.5896  18.6021  19.4320
    19.5367  19.8339  19.8431  20.2441  20.4426  20.4848  20.7329  20.8290
    23.2309  23.9478

          k = 0.1111 0.2222 0.3333 (  6534 PWs)   bands (ev):

   -67.3438 -67.3158 -67.3079 -66.5344 -34.0652 -33.9522 -33.9037 -33.2729
   -33.2493 -33.2374 -33.1872 -33.1848 -33.1545 -32.6598 -32.6476 -32.6438
     1.2468  10.8577  11.6118  12.2612  13.7624  15.6582  16.1558  16.3306
    16.5274  16.6656  17.4265  17.9410  18.1453  18.6010  18.6611  19.2785
    19.3047  19.7074  19.8067  20.0899  20.3807  20.4338  20.7267  20.8367
    23.1218  23.7703

          k = 0.1111 0.2222 0.4444 (  6518 PWs)   bands (ev):

   -67.3379 -67.3214 -67.3080 -66.5345 -34.0741 -33.9500 -33.8913 -33.2810
   -33.2552 -33.2362 -33.1855 -33.1846 -33.1487 -32.6571 -32.6521 -32.6458
     1.4066  10.3803  11.5689  12.1838  14.2835  15.2980  16.4057  16.5688
    16.6596  16.9779  17.1959  17.6114  18.0541  18.6271  18.8414  19.0780
    19.1796  19.7034  19.8064  19.9544  20.3199  20.3834  20.4885  20.8723
    23.1476  23.7269

          k = 0.1111 0.3333 0.3333 (  6503 PWs)   bands (ev):

   -67.3385 -67.3174 -67.3114 -66.5345 -34.0883 -33.9477 -33.8785 -33.2917
   -33.2521 -33.2486 -33.1842 -33.1824 -33.1374 -32.6588 -32.6488 -32.6437
     1.4753  10.8126  10.8549  12.1299  14.1552  15.9509  16.0736  16.5542
    16.6816  16.8735  17.3272  17.6483  17.9846  18.5076  18.7409  19.0990
    19.3928  19.5430  19.9243  19.9252  20.2622  20.4115  20.8987  20.9783
    22.5965  24.2115

          k = 0.1111 0.3333 0.4444 (  6499 PWs)   bands (ev):

   -67.3329 -67.3214 -67.3129 -66.5346 -34.1006 -33.9455 -33.8642 -33.3018
   -33.2579 -33.2509 -33.1827 -33.1819 -33.1280 -32.6569 -32.6492 -32.6450
     1.6370  10.3571  10.8093  12.0489  14.6047  15.6789  16.2446  16.7776
    16.8631  17.0628  17.1779  17.4113  17.9287  18.4041  18.8158  18.9917
    19.3562  19.5854  19.7347  19.9969  20.1414  20.5097  20.7323  21.0733
    22.3524  24.2453

          k = 0.1111 0.4444 0.4444 (  6493 PWs)   bands (ev):

   -67.3272 -67.3217 -67.3180 -66.5346 -34.1149 -33.9432 -33.8488 -33.3129
   -33.2600 -33.2593 -33.1813 -33.1811 -33.1165 -32.6574 -32.6463 -32.6450
     1.8003  10.3374  10.3390  11.9664  14.9336  15.9999  16.0398  16.8473
    16.9396  17.0017  17.1569  17.6203  17.8813  18.1385  18.6870  19.0348
    19.4392  19.5803  19.6278  19.9203  19.9913  20.7274  20.8656  21.1315
    21.8239  24.5860

          k = 0.2222 0.2222 0.2222 (  6547 PWs)   bands (ev):

   -67.3461 -67.3107 -67.3107 -66.5343 -34.0770 -33.9235 -33.9235 -33.2608
   -33.2608 -33.2581 -33.1741 -33.1741 -33.1593 -32.6619 -32.6423 -32.6423
     1.2054  11.5059  11.6335  11.6335  13.6121  15.9660  15.9660  16.3815
    16.3964  16.3964  17.6138  18.0864  18.0864  18.6340  18.6340  19.2218
    19.2259  19.7413  19.7413  20.3385  20.4374  20.4374  21.0805  21.0805
    23.3978  23.8158

          k = 0.2222 0.2222 0.3333 (  6509 PWs)   bands (ev):

   -67.3407 -67.3160 -67.3107 -66.5344 -34.0991 -33.9212 -33.8968 -33.2778
   -33.2755 -33.2609 -33.1691 -33.1636 -33.1497 -32.6609 -32.6438 -32.6428
     1.4338  10.8146  11.4944  11.5405  14.0015  15.8921  16.3477  16.3805
    16.5662  16.7442  17.4593  17.8197  17.9651  18.6061  18.6854  18.9748
    19.2135  19.6813  19.7898  20.2387  20.3912  20.4173  20.9562  21.2858
    23.3379  23.6142

          k = 0.2222 0.2222 0.4444 (  6513 PWs)   bands (ev):

   -67.3352 -67.3214 -67.3107 -66.5345 -34.1108 -33.9197 -33.8820 -33.2873
   -33.2842 -33.2620 -33.1673 -33.1587 -33.1437 -32.6563 -32.6486 -32.6431
     1.5954  10.3375  11.4094  11.5222  14.4642  15.5473  16.4102  16.6966
    16.7873  17.0777  17.2514  17.4549  17.9246  18.6158  18.7206  18.7989
    19.2520  19.7837  19.8998  20.1213  20.3451  20.3571  20.5393  21.3922
    23.3752  23.4644

          k = 0.2222 0.3333 0.3333 (  6510 PWs)   bands (ev):

   -67.3360 -67.3174 -67.3138 -66.5345 -34.1259 -33.9088 -33.8776 -33.2977
   -33.2821 -33.2782 -33.1581 -33.1562 -33.1365 -32.6583 -32.6429 -32.6419
     1.6653  10.7520  10.7600  11.4199  14.3578  16.1255  16.1730  16.5863
    16.7958  16.9210  17.4229  17.6830  17.8433  18.5151  18.6478  18.7613
    19.3528  19.6425  19.8908  20.1765  20.3806  20.3977  21.0672  21.4864
    22.7517  23.7083

          k = 0.2222 0.3333 0.4444 (  6519 PWs)   bands (ev):

   -67.3311 -67.3213 -67.3146 -66.5346 -34.1403 -33.9059 -33.8630 -33.3088
   -33.2908 -33.2826 -33.1558 -33.1515 -33.1275 -32.6537 -32.6447 -32.6416
     1.8297  10.2855  10.7140  11.3581  14.7235  15.8572  16.2691  16.8388
    17.0109  17.0612  17.3090  17.5574  17.8461  18.4193  18.5339  18.7264
    19.4682  19.7475  19.9628  20.0613  20.3214  20.4545  20.7324  21.6899
    22.3545  23.6885

          k = 0.2222 0.4444 0.4444 (  6489 PWs)   bands (ev):

   -67.3264 -67.3217 -67.3188 -66.5346 -34.1563 -33.9019 -33.8486 -33.3208
   -33.2946 -33.2939 -33.1503 -33.1501 -33.1163 -32.6508 -32.6422 -32.6418
     1.9963  10.2481  10.2522  11.2852  14.9448  16.0841  16.1704  16.6783
    17.2036  17.2402  17.3387  17.7456  17.8435  18.1952  18.3676  18.7279
    19.6944  19.7352  19.8894  19.9601  20.2303  20.6467  20.8152  21.6139
    21.8568  23.8907

          k = 0.3333 0.3333 0.3333 (  6497 PWs)   bands (ev):

   -67.3323 -67.3173 -67.3173 -66.5345 -34.1565 -33.8766 -33.8766 -33.3054
   -33.3054 -33.2995 -33.1400 -33.1400 -33.1329 -32.6539 -32.6399 -32.6399
     1.9014  10.6412  10.6412  10.7353  14.6296  16.0844  16.4470  16.4470
    17.0961  17.0961  17.5105  17.7475  17.7475  18.4508  18.5260  18.5260
    19.5067  19.8518  19.8518  20.2899  20.3764  20.3764  21.3679  21.3679
    22.9694  22.9694

          k = 0.3333 0.3333 0.4444 (  6520 PWs)   bands (ev):

   -67.3283 -67.3213 -67.3173 -66.5346 -34.1731 -33.8759 -33.8588 -33.3180
   -33.3141 -33.3071 -33.1373 -33.1308 -33.1252 -32.6484 -32.6405 -32.6385
     2.0696  10.2052  10.5721  10.6657  14.8547  16.0357  16.2880  16.6332
    17.3158  17.3329  17.5112  17.7319  17.8245  18.2901  18.4217  18.5177
    19.6671  19.9046  20.0206  20.2103  20.3910  20.4085  20.7764  21.7179
    22.3426  23.1535

          k = 0.3333 0.4444 0.4444 (  6530 PWs)   bands (ev):

   -67.3250 -67.3217 -67.3201 -66.5346 -34.1911 -33.8674 -33.8485 -33.3296
   -33.3210 -33.3202 -33.1281 -33.1277 -33.1162 -32.6432 -32.6381 -32.6379
     2.2412  10.1492  10.1587  10.5579  14.9336  16.1691  16.2827  16.4800
    17.5929  17.5999  17.6676  17.8604  17.8668  18.1337  18.3005  18.4929
    19.8642  19.9515  20.0421  20.1417  20.4202  20.4857  20.7232  21.2316
    22.3666  23.1201

          k = 0.4444 0.4444 0.4444 (  6539 PWs)   bands (ev):

   -67.3234 -67.3216 -67.3216 -66.5345 -34.2103 -33.8484 -33.8484 -33.3353
   -33.3353 -33.3343 -33.1166 -33.1166 -33.1157 -32.6377 -32.6356 -32.6356
     2.4169  10.0870  10.0870  10.1096  14.9154  16.2391  16.3304  16.3304
    17.8952  17.8952  17.9814  17.9814  17.9857  18.0026  18.3669  18.3669
    20.0135  20.0714  20.0714  20.2607  20.3450  20.3450  20.7354  20.7354
    22.6692  22.6692

     the Fermi energy is    18.7323 ev

!    total energy              =   -1345.16787563 Ry
     Harris-Foulkes estimate   =   -1345.16787563 Ry
     estimated scf accuracy    <          2.7E-09 Ry

     total all-electron energy =    -10291.769511 Ry

     The total energy is the sum of the following terms:

     one-electron contribution =    -446.73408818 Ry
     hartree contribution      =     269.20287628 Ry
     xc contribution           =    -117.08884232 Ry
     ewald contribution        =    -711.61403732 Ry
     one-center paw contrib.   =    -338.93387416 Ry
     smearing contrib. (-TS)   =       0.00009008 Ry

     total magnetization       =     7.68 Bohr mag/cell
     absolute magnetization    =     8.03 Bohr mag/cell

     convergence has been achieved in  27 iterations

     Forces acting on atoms (Ry/au):


     negative rho (up, down):  0.000E+00 2.478E-04
     atom    1 type  1   force =     0.00000000    0.00000000    0.00000000
     atom    2 type  1   force =     0.00000000    0.00000000    0.00000000
     atom    3 type  1   force =     0.00000000    0.00000000    0.00000000
     atom    4 type  1   force =     0.00000000    0.00000000    0.00000000
     atom    5 type  2   force =     0.00000000    0.00000000    0.00000000

     Total force =     0.000000     Total SCF correction =     0.000000


     entering subroutine stress ...


     negative rho (up, down):  0.000E+00 2.478E-04
          total   stress  (Ry/bohr**3)                   (kbar)     P=  148.18
   0.00100732   0.00000000   0.00000000        148.18      0.00      0.00
   0.00000000   0.00100732   0.00000000          0.00    148.18      0.00
   0.00000000   0.00000000   0.00100732          0.00      0.00    148.18


     Writing output data file config.save
 
     init_run     :      3.78s CPU      3.93s WALL (       1 calls)
     electrons    :    231.93s CPU    238.08s WALL (       1 calls)
     forces       :      0.89s CPU      0.92s WALL (       1 calls)
     stress       :      2.49s CPU      2.51s WALL (       1 calls)

     Called by init_run:
     wfcinit      :      2.62s CPU      2.70s WALL (       1 calls)
     potinit      :      0.50s CPU      0.53s WALL (       1 calls)

     Called by electrons:
     c_bands      :    183.99s CPU    187.84s WALL (      27 calls)
     sum_band     :     33.60s CPU     34.91s WALL (      27 calls)
     v_of_rho     :      1.47s CPU      1.50s WALL (      28 calls)
     newd         :      1.99s CPU      2.52s WALL (      28 calls)
     mix_rho      :      0.41s CPU      0.42s WALL (      27 calls)

     Called by c_bands:
     init_us_2    :      3.57s CPU      3.64s WALL (    3990 calls)
     cegterg      :    170.41s CPU    173.85s WALL (    1890 calls)

     Called by sum_band:
     sum_band:bec :      0.06s CPU      0.07s WALL (    1890 calls)
     addusdens    :      4.95s CPU      5.50s WALL (      27 calls)

     Called by *egterg:
     h_psi        :    111.68s CPU    114.06s WALL (    6423 calls)
     s_psi        :      5.38s CPU      5.47s WALL (    6423 calls)
     g_psi        :      1.09s CPU      1.10s WALL (    4463 calls)
     cdiaghg      :     18.92s CPU     19.13s WALL (    6353 calls)

     Called by h_psi:
     add_vuspsi   :      5.18s CPU      5.30s WALL (    6423 calls)

     General routines
     calbec       :      9.46s CPU      9.69s WALL (    8663 calls)
     fft          :      0.81s CPU      0.82s WALL (     902 calls)
     ffts         :      0.04s CPU      0.07s WALL (     110 calls)
     fftw         :     96.75s CPU     98.87s WALL (  454618 calls)
     interpolate  :      0.17s CPU      0.19s WALL (     110 calls)
     davcio       :      0.06s CPU      0.43s WALL (      70 calls)
 
     Parallel routines
     fft_scatter  :     36.48s CPU     37.50s WALL (  455630 calls)

     PAW routines
     PAW_pot      :     10.81s CPU     11.15s WALL (      28 calls)
     PAW_symme    :      0.04s CPU      0.04s WALL (      55 calls)
 
     PWSCF        :  3m59.67s CPU     4m 6.59s WALL

 
   This run was terminated on:  23: 1:47  26Oct2020            

=------------------------------------------------------------------------------=
   JOB DONE.
=------------------------------------------------------------------------------=
