
     Program PWSCF v.5.2.0 starts on 26Oct2020 at 23: 3:17 

     This program is part of the open-source Quantum ESPRESSO suite
     for quantum simulation of materials; please cite
         "P. Giannozzi et al., J. Phys.:Condens. Matter 21 395502 (2009);
          URL http://www.quantum-espresso.org", 
     in publications or presentations arising from this work. More details at
     http://www.quantum-espresso.org/quote

     Parallel version (MPI), running on     6 processors
     R & G space division:  proc/nbgrp/npool/nimage =       6
     Reading input from 7.in

     Current dimensions of program PWSCF are:
     Max number of different atomic species (ntypx) = 10
     Max number of k-points (npk) =  40000
     Max angular momentum in pseudopotentials (lmaxx) =  3

     IMPORTANT: XC functional enforced from input :
     Exchange-correlation      = PBE ( 1  4  3  4 0 0)
     Any further DFT definition will be discarded
     Please, verify this is what you really want

               file Fe_PSEUDO: wavefunction(s)  3P 3D renormalized
               file N_PSEUDO: wavefunction(s)  2S renormalized

     Subspace diagonalization in iterative solution of the eigenvalue problem:
     a serial algorithm will be used

 
     Parallelization info
     --------------------
     sticks:   dense  smooth     PW     G-vecs:    dense   smooth      PW
     Min         459     308     86                18187     9892    1486
     Max         460     309     87                18190     9903    1489
     Sum        2757    1853    517               109127    59373    8925
 
     Generating pointlists ...
     new r_m :   0.2063 (alat units)  1.4318 (a.u.) for type    1
     new r_m :   0.2063 (alat units)  1.4318 (a.u.) for type    2


     bravais-lattice index     =            0
     lattice parameter (alat)  =       6.9422  a.u.
     unit-cell volume          =     334.5777 (a.u.)^3
     number of atoms/cell      =            5
     number of atomic types    =            2
     number of electrons       =        69.00
     number of Kohn-Sham states=           42
     kinetic-energy cutoff     =     120.0000  Ry
     charge density cutoff     =     720.0000  Ry
     convergence threshold     =      1.0E-08
     mixing beta               =       0.7000
     number of iterations used =            8  plain     mixing
     Exchange-correlation      = PBE ( 1  4  3  4 0 0)

     celldm(1)=   6.942230  celldm(2)=   0.000000  celldm(3)=   0.000000
     celldm(4)=   0.000000  celldm(5)=   0.000000  celldm(6)=   0.000000

     crystal axes: (cart. coord. in units of alat)
               a(1) = (   1.000000   0.000000   0.000000 )  
               a(2) = (   0.000000   1.000000   0.000000 )  
               a(3) = (   0.000000   0.000000   1.000000 )  

     reciprocal axes: (cart. coord. in units 2 pi/alat)
               b(1) = (  1.000000  0.000000  0.000000 )  
               b(2) = (  0.000000  1.000000  0.000000 )  
               b(3) = (  0.000000  0.000000  1.000000 )  


     PseudoPot. # 1 for Fe read from file:
     pseudo/Fe_PSEUDO
     MD5 check sum: e30d5f36a6f0cb983ee41abee56170da
     Pseudo is Projector augmented-wave + core cor, Zval = 16.0
     Generated using "atomic" code by A. Dal Corso  v.6.3
     Shape of augmentation charge: PSQ
     Using radial grid of 1191 points,  6 beta functions with: 
                l(1) =   0
                l(2) =   0
                l(3) =   1
                l(4) =   1
                l(5) =   2
                l(6) =   2
     Q(r) pseudized with 0 coefficients 


     PseudoPot. # 2 for  N read from file:
     pseudo/N_PSEUDO
     MD5 check sum: 14c48229446f9f2d411169a3abcbc3fa
     Pseudo is Projector augmented-wave + core cor, Zval =  5.0
     Generated using "atomic" code by A. Dal Corso  v.6.3
     Shape of augmentation charge: PSQ
     Using radial grid of 1085 points,  4 beta functions with: 
                l(1) =   0
                l(2) =   0
                l(3) =   1
                l(4) =   1
     Q(r) pseudized with 0 coefficients 


     atomic species   valence    mass     pseudopotential
        Fe            16.00    55.84500     Fe( 1.00)
        N              5.00    14.00650      N( 1.00)

     Starting magnetic structure 
     atomic species   magnetization
        Fe           0.500
        N           -0.010

     48 Sym. Ops., with inversion, found



   Cartesian axes

     site n.     atom                  positions (alat units)
         1           Fe  tau(   1) = (   0.0000000   0.5000000   0.5000000  )
         2           Fe  tau(   2) = (   0.5000000   0.5000000   0.0000000  )
         3           Fe  tau(   3) = (   0.5000000   0.0000000   0.5000000  )
         4           Fe  tau(   4) = (   0.0000000   0.0000000   0.0000000  )
         5           N   tau(   5) = (   0.5000000   0.5000000   0.5000000  )

     number of k points=    70  Marzari-Vanderbilt smearing, width (Ry)=  0.0050
                       cart. coord. in units 2pi/alat
        k(    1) = (   0.0000000   0.0000000   0.0000000), wk =   0.0013717
        k(    2) = (   0.0000000   0.0000000   0.1111111), wk =   0.0082305
        k(    3) = (   0.0000000   0.0000000   0.2222222), wk =   0.0082305
        k(    4) = (   0.0000000   0.0000000   0.3333333), wk =   0.0082305
        k(    5) = (   0.0000000   0.0000000   0.4444444), wk =   0.0082305
        k(    6) = (   0.0000000   0.1111111   0.1111111), wk =   0.0164609
        k(    7) = (   0.0000000   0.1111111   0.2222222), wk =   0.0329218
        k(    8) = (   0.0000000   0.1111111   0.3333333), wk =   0.0329218
        k(    9) = (   0.0000000   0.1111111   0.4444444), wk =   0.0329218
        k(   10) = (   0.0000000   0.2222222   0.2222222), wk =   0.0164609
        k(   11) = (   0.0000000   0.2222222   0.3333333), wk =   0.0329218
        k(   12) = (   0.0000000   0.2222222   0.4444444), wk =   0.0329218
        k(   13) = (   0.0000000   0.3333333   0.3333333), wk =   0.0164609
        k(   14) = (   0.0000000   0.3333333   0.4444444), wk =   0.0329218
        k(   15) = (   0.0000000   0.4444444   0.4444444), wk =   0.0164609
        k(   16) = (   0.1111111   0.1111111   0.1111111), wk =   0.0109739
        k(   17) = (   0.1111111   0.1111111   0.2222222), wk =   0.0329218
        k(   18) = (   0.1111111   0.1111111   0.3333333), wk =   0.0329218
        k(   19) = (   0.1111111   0.1111111   0.4444444), wk =   0.0329218
        k(   20) = (   0.1111111   0.2222222   0.2222222), wk =   0.0329218
        k(   21) = (   0.1111111   0.2222222   0.3333333), wk =   0.0658436
        k(   22) = (   0.1111111   0.2222222   0.4444444), wk =   0.0658436
        k(   23) = (   0.1111111   0.3333333   0.3333333), wk =   0.0329218
        k(   24) = (   0.1111111   0.3333333   0.4444444), wk =   0.0658436
        k(   25) = (   0.1111111   0.4444444   0.4444444), wk =   0.0329218
        k(   26) = (   0.2222222   0.2222222   0.2222222), wk =   0.0109739
        k(   27) = (   0.2222222   0.2222222   0.3333333), wk =   0.0329218
        k(   28) = (   0.2222222   0.2222222   0.4444444), wk =   0.0329218
        k(   29) = (   0.2222222   0.3333333   0.3333333), wk =   0.0329218
        k(   30) = (   0.2222222   0.3333333   0.4444444), wk =   0.0658436
        k(   31) = (   0.2222222   0.4444444   0.4444444), wk =   0.0329218
        k(   32) = (   0.3333333   0.3333333   0.3333333), wk =   0.0109739
        k(   33) = (   0.3333333   0.3333333   0.4444444), wk =   0.0329218
        k(   34) = (   0.3333333   0.4444444   0.4444444), wk =   0.0329218
        k(   35) = (   0.4444444   0.4444444   0.4444444), wk =   0.0109739
        k(   36) = (   0.0000000   0.0000000   0.0000000), wk =   0.0013717
        k(   37) = (   0.0000000   0.0000000   0.1111111), wk =   0.0082305
        k(   38) = (   0.0000000   0.0000000   0.2222222), wk =   0.0082305
        k(   39) = (   0.0000000   0.0000000   0.3333333), wk =   0.0082305
        k(   40) = (   0.0000000   0.0000000   0.4444444), wk =   0.0082305
        k(   41) = (   0.0000000   0.1111111   0.1111111), wk =   0.0164609
        k(   42) = (   0.0000000   0.1111111   0.2222222), wk =   0.0329218
        k(   43) = (   0.0000000   0.1111111   0.3333333), wk =   0.0329218
        k(   44) = (   0.0000000   0.1111111   0.4444444), wk =   0.0329218
        k(   45) = (   0.0000000   0.2222222   0.2222222), wk =   0.0164609
        k(   46) = (   0.0000000   0.2222222   0.3333333), wk =   0.0329218
        k(   47) = (   0.0000000   0.2222222   0.4444444), wk =   0.0329218
        k(   48) = (   0.0000000   0.3333333   0.3333333), wk =   0.0164609
        k(   49) = (   0.0000000   0.3333333   0.4444444), wk =   0.0329218
        k(   50) = (   0.0000000   0.4444444   0.4444444), wk =   0.0164609
        k(   51) = (   0.1111111   0.1111111   0.1111111), wk =   0.0109739
        k(   52) = (   0.1111111   0.1111111   0.2222222), wk =   0.0329218
        k(   53) = (   0.1111111   0.1111111   0.3333333), wk =   0.0329218
        k(   54) = (   0.1111111   0.1111111   0.4444444), wk =   0.0329218
        k(   55) = (   0.1111111   0.2222222   0.2222222), wk =   0.0329218
        k(   56) = (   0.1111111   0.2222222   0.3333333), wk =   0.0658436
        k(   57) = (   0.1111111   0.2222222   0.4444444), wk =   0.0658436
        k(   58) = (   0.1111111   0.3333333   0.3333333), wk =   0.0329218
        k(   59) = (   0.1111111   0.3333333   0.4444444), wk =   0.0658436
        k(   60) = (   0.1111111   0.4444444   0.4444444), wk =   0.0329218
        k(   61) = (   0.2222222   0.2222222   0.2222222), wk =   0.0109739
        k(   62) = (   0.2222222   0.2222222   0.3333333), wk =   0.0329218
        k(   63) = (   0.2222222   0.2222222   0.4444444), wk =   0.0329218
        k(   64) = (   0.2222222   0.3333333   0.3333333), wk =   0.0329218
        k(   65) = (   0.2222222   0.3333333   0.4444444), wk =   0.0658436
        k(   66) = (   0.2222222   0.4444444   0.4444444), wk =   0.0329218
        k(   67) = (   0.3333333   0.3333333   0.3333333), wk =   0.0109739
        k(   68) = (   0.3333333   0.3333333   0.4444444), wk =   0.0329218
        k(   69) = (   0.3333333   0.4444444   0.4444444), wk =   0.0329218
        k(   70) = (   0.4444444   0.4444444   0.4444444), wk =   0.0109739

     Dense  grid:   109127 G-vectors     FFT dimensions: (  60,  60,  60)

     Smooth grid:    59373 G-vectors     FFT dimensions: (  50,  50,  50)

     Largest allocated arrays     est. size (Mb)     dimensions
        Kohn-Sham Wavefunctions         0.82 Mb     (    1273,   42)
        NL pseudopotentials             1.55 Mb     (    1273,   80)
        Each V/rho on FFT grid          1.10 Mb     (   36000,   2)
        Each G-vector array             0.14 Mb     (   18190)
        G-vector shells                 0.01 Mb     (     730)
     Largest temporary arrays     est. size (Mb)     dimensions
        Auxiliary wavefunctions         3.26 Mb     (    1273,  168)
        Each subspace H/S matrix        0.43 Mb     (     168,  168)
        Each <psi_i|beta_j> matrix      0.05 Mb     (      80,   42)
        Arrays for rho mixing           4.39 Mb     (   36000,    8)

     Initial potential from superposition of free atoms

     starting charge   68.99837, renormalised to   69.00000
     Starting wfc are   44 randomized atomic wfcs
     Checking if some PAW data can be deallocated... 

     total cpu time spent up to now is        4.8 secs

     per-process dynamical memory:    96.5 Mb

     Self-consistent Calculation

     iteration #  1     ecut=   120.00 Ry     beta=0.70
     Davidson diagonalization with overlap
     ethr =  1.00E-02,  avg # of iterations =  3.1

     negative rho (up, down):  0.000E+00 5.924E-04
 
     Magnetic moment per site:
     atom:    1    charge:   12.7337    magn:    4.0979    constr:    0.0000
     atom:    2    charge:   12.7337    magn:    4.0979    constr:    0.0000
     atom:    3    charge:   12.7337    magn:    4.0979    constr:    0.0000
     atom:    4    charge:   12.6143    magn:    4.1671    constr:    0.0000
     atom:    5    charge:    4.6364    magn:    0.1186    constr:    0.0000

     total cpu time spent up to now is       15.6 secs

     total energy              =   -1344.14300911 Ry
     Harris-Foulkes estimate   =   -1343.44461007 Ry
     estimated scf accuracy    <       2.86654372 Ry

     total magnetization       =    13.87 Bohr mag/cell
     absolute magnetization    =    14.05 Bohr mag/cell

     iteration #  2     ecut=   120.00 Ry     beta=0.70
     Davidson diagonalization with overlap
     ethr =  4.15E-03,  avg # of iterations =  3.4

     negative rho (up, down):  0.000E+00 5.107E-04
 
     Magnetic moment per site:
     atom:    1    charge:   12.7248    magn:    3.8170    constr:    0.0000
     atom:    2    charge:   12.7248    magn:    3.8170    constr:    0.0000
     atom:    3    charge:   12.7248    magn:    3.8170    constr:    0.0000
     atom:    4    charge:   13.0655    magn:    3.5705    constr:    0.0000
     atom:    5    charge:    4.2267    magn:    0.0573    constr:    0.0000

     total cpu time spent up to now is       27.5 secs

     total energy              =   -1343.29934943 Ry
     Harris-Foulkes estimate   =   -1345.74777386 Ry
     estimated scf accuracy    <       8.51472984 Ry

     total magnetization       =     9.38 Bohr mag/cell
     absolute magnetization    =    10.50 Bohr mag/cell

     iteration #  3     ecut=   120.00 Ry     beta=0.70
     Davidson diagonalization with overlap
     ethr =  4.15E-03,  avg # of iterations =  3.5

     negative rho (up, down):  0.000E+00 3.903E-04
 
     Magnetic moment per site:
     atom:    1    charge:   12.8856    magn:    3.4481    constr:    0.0000
     atom:    2    charge:   12.8856    magn:    3.4481    constr:    0.0000
     atom:    3    charge:   12.8856    magn:    3.4481    constr:    0.0000
     atom:    4    charge:   12.8127    magn:    3.0181    constr:    0.0000
     atom:    5    charge:    4.0306    magn:    0.0243    constr:    0.0000

     total cpu time spent up to now is       39.2 secs

     total energy              =   -1343.62067354 Ry
     Harris-Foulkes estimate   =   -1346.18761707 Ry
     estimated scf accuracy    <      25.52017745 Ry

     total magnetization       =     3.80 Bohr mag/cell
     absolute magnetization    =     4.50 Bohr mag/cell

     iteration #  4     ecut=   120.00 Ry     beta=0.70
     Davidson diagonalization with overlap
     ethr =  4.15E-03,  avg # of iterations =  3.2

     negative rho (up, down):  0.000E+00 7.274E-04
 
     Magnetic moment per site:
     atom:    1    charge:   12.7749    magn:    2.2618    constr:    0.0000
     atom:    2    charge:   12.7749    magn:    2.2618    constr:    0.0000
     atom:    3    charge:   12.7749    magn:    2.2618    constr:    0.0000
     atom:    4    charge:   12.7290    magn:    1.8776    constr:    0.0000
     atom:    5    charge:    4.0539    magn:   -0.0486    constr:    0.0000

     total cpu time spent up to now is       49.8 secs

     total energy              =   -1345.02763927 Ry
     Harris-Foulkes estimate   =   -1345.10566214 Ry
     estimated scf accuracy    <       0.54911450 Ry

     total magnetization       =    10.75 Bohr mag/cell
     absolute magnetization    =    11.16 Bohr mag/cell

     iteration #  5     ecut=   120.00 Ry     beta=0.70
     Davidson diagonalization with overlap
     ethr =  7.96E-04,  avg # of iterations =  3.3

     negative rho (up, down):  0.000E+00 6.260E-04
 
     Magnetic moment per site:
     atom:    1    charge:   12.8338    magn:    2.1625    constr:    0.0000
     atom:    2    charge:   12.8338    magn:    2.1625    constr:    0.0000
     atom:    3    charge:   12.8338    magn:    2.1625    constr:    0.0000
     atom:    4    charge:   12.8046    magn:    2.0414    constr:    0.0000
     atom:    5    charge:    4.1107    magn:   -0.0268    constr:    0.0000

     total cpu time spent up to now is       62.4 secs

     total energy              =   -1345.11320940 Ry
     Harris-Foulkes estimate   =   -1345.20034678 Ry
     estimated scf accuracy    <       0.24085895 Ry

     total magnetization       =     9.59 Bohr mag/cell
     absolute magnetization    =     9.95 Bohr mag/cell

     iteration #  6     ecut=   120.00 Ry     beta=0.70
     Davidson diagonalization with overlap
     ethr =  3.49E-04,  avg # of iterations =  3.0

     negative rho (up, down):  0.000E+00 5.665E-04
 
     Magnetic moment per site:
     atom:    1    charge:   12.8276    magn:    2.1149    constr:    0.0000
     atom:    2    charge:   12.8276    magn:    2.1149    constr:    0.0000
     atom:    3    charge:   12.8276    magn:    2.1149    constr:    0.0000
     atom:    4    charge:   12.7936    magn:    2.3691    constr:    0.0000
     atom:    5    charge:    4.1126    magn:    0.0064    constr:    0.0000

     total cpu time spent up to now is       74.1 secs

     total energy              =   -1345.15993514 Ry
     Harris-Foulkes estimate   =   -1345.15569495 Ry
     estimated scf accuracy    <       0.02603549 Ry

     total magnetization       =     9.38 Bohr mag/cell
     absolute magnetization    =     9.72 Bohr mag/cell

     iteration #  7     ecut=   120.00 Ry     beta=0.70
     Davidson diagonalization with overlap
     ethr =  3.77E-05,  avg # of iterations =  1.7

     negative rho (up, down):  0.000E+00 5.047E-04
 
     Magnetic moment per site:
     atom:    1    charge:   12.8282    magn:    1.9572    constr:    0.0000
     atom:    2    charge:   12.8282    magn:    1.9572    constr:    0.0000
     atom:    3    charge:   12.8282    magn:    1.9572    constr:    0.0000
     atom:    4    charge:   12.7732    magn:    2.8104    constr:    0.0000
     atom:    5    charge:    4.1119    magn:    0.0392    constr:    0.0000

     total cpu time spent up to now is       83.0 secs

     total energy              =   -1345.15981565 Ry
     Harris-Foulkes estimate   =   -1345.16169467 Ry
     estimated scf accuracy    <       0.01805705 Ry

     total magnetization       =     9.38 Bohr mag/cell
     absolute magnetization    =     9.71 Bohr mag/cell

     iteration #  8     ecut=   120.00 Ry     beta=0.70
     Davidson diagonalization with overlap
     ethr =  2.62E-05,  avg # of iterations =  2.2

     negative rho (up, down):  0.000E+00 4.837E-04
 
     Magnetic moment per site:
     atom:    1    charge:   12.8314    magn:    1.8624    constr:    0.0000
     atom:    2    charge:   12.8314    magn:    1.8624    constr:    0.0000
     atom:    3    charge:   12.8314    magn:    1.8624    constr:    0.0000
     atom:    4    charge:   12.7757    magn:    2.7252    constr:    0.0000
     atom:    5    charge:    4.1098    magn:    0.0310    constr:    0.0000

     total cpu time spent up to now is       93.4 secs

     total energy              =   -1345.16484531 Ry
     Harris-Foulkes estimate   =   -1345.16387131 Ry
     estimated scf accuracy    <       0.00209225 Ry

     total magnetization       =     9.00 Bohr mag/cell
     absolute magnetization    =     9.35 Bohr mag/cell

     iteration #  9     ecut=   120.00 Ry     beta=0.70
     Davidson diagonalization with overlap
     ethr =  3.03E-06,  avg # of iterations =  2.1

     negative rho (up, down):  0.000E+00 5.492E-04
 
     Magnetic moment per site:
     atom:    1    charge:   12.8293    magn:    1.9949    constr:    0.0000
     atom:    2    charge:   12.8293    magn:    1.9949    constr:    0.0000
     atom:    3    charge:   12.8293    magn:    1.9949    constr:    0.0000
     atom:    4    charge:   12.7746    magn:    2.7581    constr:    0.0000
     atom:    5    charge:    4.1146    magn:    0.0387    constr:    0.0000

     total cpu time spent up to now is      103.7 secs

     total energy              =   -1345.16229447 Ry
     Harris-Foulkes estimate   =   -1345.16566970 Ry
     estimated scf accuracy    <       0.00202504 Ry

     total magnetization       =     8.59 Bohr mag/cell
     absolute magnetization    =     8.97 Bohr mag/cell

     iteration # 10     ecut=   120.00 Ry     beta=0.70
     Davidson diagonalization with overlap
     ethr =  2.93E-06,  avg # of iterations =  1.9

     negative rho (up, down):  0.000E+00 5.983E-04
 
     Magnetic moment per site:
     atom:    1    charge:   12.8278    magn:    2.0795    constr:    0.0000
     atom:    2    charge:   12.8278    magn:    2.0795    constr:    0.0000
     atom:    3    charge:   12.8278    magn:    2.0795    constr:    0.0000
     atom:    4    charge:   12.7757    magn:    2.7413    constr:    0.0000
     atom:    5    charge:    4.1181    magn:    0.0453    constr:    0.0000

     total cpu time spent up to now is      113.8 secs

     total energy              =   -1345.16206997 Ry
     Harris-Foulkes estimate   =   -1345.16373559 Ry
     estimated scf accuracy    <       0.00219933 Ry

     total magnetization       =     9.10 Bohr mag/cell
     absolute magnetization    =     9.44 Bohr mag/cell

     iteration # 11     ecut=   120.00 Ry     beta=0.70
     Davidson diagonalization with overlap
     ethr =  2.93E-06,  avg # of iterations =  1.7

     negative rho (up, down):  0.000E+00 3.921E-04
 
     Magnetic moment per site:
     atom:    1    charge:   12.8346    magn:    1.7222    constr:    0.0000
     atom:    2    charge:   12.8346    magn:    1.7222    constr:    0.0000
     atom:    3    charge:   12.8346    magn:    1.7222    constr:    0.0000
     atom:    4    charge:   12.7756    magn:    2.6965    constr:    0.0000
     atom:    5    charge:    4.1049    magn:    0.0141    constr:    0.0000

     total cpu time spent up to now is      123.8 secs

     total energy              =   -1345.15856351 Ry
     Harris-Foulkes estimate   =   -1345.16256786 Ry
     estimated scf accuracy    <       0.00284449 Ry

     total magnetization       =     9.33 Bohr mag/cell
     absolute magnetization    =     9.67 Bohr mag/cell

     iteration # 12     ecut=   120.00 Ry     beta=0.70
     Davidson diagonalization with overlap
     ethr =  2.93E-06,  avg # of iterations =  3.1

     negative rho (up, down):  0.000E+00 2.001E-04
 
     Magnetic moment per site:
     atom:    1    charge:   12.8419    magn:    1.3159    constr:    0.0000
     atom:    2    charge:   12.8419    magn:    1.3159    constr:    0.0000
     atom:    3    charge:   12.8419    magn:    1.3159    constr:    0.0000
     atom:    4    charge:   12.7748    magn:    2.6499    constr:    0.0000
     atom:    5    charge:    4.0888    magn:   -0.0228    constr:    0.0000

     total cpu time spent up to now is      136.0 secs

     total energy              =   -1345.15919816 Ry
     Harris-Foulkes estimate   =   -1345.16783341 Ry
     estimated scf accuracy    <       0.00120767 Ry

     total magnetization       =     8.19 Bohr mag/cell
     absolute magnetization    =     8.58 Bohr mag/cell

     iteration # 13     ecut=   120.00 Ry     beta=0.70
     Davidson diagonalization with overlap
     ethr =  1.75E-06,  avg # of iterations =  3.4

     negative rho (up, down):  0.000E+00 1.986E-04
 
     Magnetic moment per site:
     atom:    1    charge:   12.8440    magn:    1.2142    constr:    0.0000
     atom:    2    charge:   12.8440    magn:    1.2142    constr:    0.0000
     atom:    3    charge:   12.8440    magn:    1.2142    constr:    0.0000
     atom:    4    charge:   12.7747    magn:    2.6457    constr:    0.0000
     atom:    5    charge:    4.0844    magn:   -0.0328    constr:    0.0000

     total cpu time spent up to now is      150.1 secs

     total energy              =   -1345.16707911 Ry
     Harris-Foulkes estimate   =   -1345.16847219 Ry
     estimated scf accuracy    <       0.00058689 Ry

     total magnetization       =     7.22 Bohr mag/cell
     absolute magnetization    =     7.60 Bohr mag/cell

     iteration # 14     ecut=   120.00 Ry     beta=0.70
     Davidson diagonalization with overlap
     ethr =  8.51E-07,  avg # of iterations =  2.6

     negative rho (up, down):  0.000E+00 2.003E-04
 
     Magnetic moment per site:
     atom:    1    charge:   12.8429    magn:    1.2886    constr:    0.0000
     atom:    2    charge:   12.8429    magn:    1.2886    constr:    0.0000
     atom:    3    charge:   12.8429    magn:    1.2886    constr:    0.0000
     atom:    4    charge:   12.7748    magn:    2.6535    constr:    0.0000
     atom:    5    charge:    4.0864    magn:   -0.0275    constr:    0.0000

     total cpu time spent up to now is      161.4 secs

     total energy              =   -1345.16799974 Ry
     Harris-Foulkes estimate   =   -1345.16771824 Ry
     estimated scf accuracy    <       0.00128264 Ry

     total magnetization       =     6.98 Bohr mag/cell
     absolute magnetization    =     7.35 Bohr mag/cell

     iteration # 15     ecut=   120.00 Ry     beta=0.70
     Davidson diagonalization with overlap
     ethr =  8.51E-07,  avg # of iterations =  2.1

     negative rho (up, down):  0.000E+00 2.008E-04
 
     Magnetic moment per site:
     atom:    1    charge:   12.8434    magn:    1.2845    constr:    0.0000
     atom:    2    charge:   12.8434    magn:    1.2845    constr:    0.0000
     atom:    3    charge:   12.8434    magn:    1.2845    constr:    0.0000
     atom:    4    charge:   12.7754    magn:    2.6621    constr:    0.0000
     atom:    5    charge:    4.0854    magn:   -0.0321    constr:    0.0000

     total cpu time spent up to now is      171.7 secs

     total energy              =   -1345.16841009 Ry
     Harris-Foulkes estimate   =   -1345.16835100 Ry
     estimated scf accuracy    <       0.00076264 Ry

     total magnetization       =     7.16 Bohr mag/cell
     absolute magnetization    =     7.53 Bohr mag/cell

     iteration # 16     ecut=   120.00 Ry     beta=0.70
     Davidson diagonalization with overlap
     ethr =  8.51E-07,  avg # of iterations =  1.0

     negative rho (up, down):  0.000E+00 2.495E-04
 
     Magnetic moment per site:
     atom:    1    charge:   12.8393    magn:    1.4924    constr:    0.0000
     atom:    2    charge:   12.8393    magn:    1.4924    constr:    0.0000
     atom:    3    charge:   12.8393    magn:    1.4924    constr:    0.0000
     atom:    4    charge:   12.7748    magn:    2.6893    constr:    0.0000
     atom:    5    charge:    4.0911    magn:   -0.0197    constr:    0.0000

     total cpu time spent up to now is      180.9 secs

     total energy              =   -1345.16609467 Ry
     Harris-Foulkes estimate   =   -1345.16842430 Ry
     estimated scf accuracy    <       0.00078784 Ry

     total magnetization       =     7.16 Bohr mag/cell
     absolute magnetization    =     7.53 Bohr mag/cell

     iteration # 17     ecut=   120.00 Ry     beta=0.70
     Davidson diagonalization with overlap
     ethr =  8.51E-07,  avg # of iterations =  3.1

     negative rho (up, down):  0.000E+00 2.545E-04
 
     Magnetic moment per site:
     atom:    1    charge:   12.8390    magn:    1.5019    constr:    0.0000
     atom:    2    charge:   12.8390    magn:    1.5019    constr:    0.0000
     atom:    3    charge:   12.8390    magn:    1.5019    constr:    0.0000
     atom:    4    charge:   12.7748    magn:    2.6859    constr:    0.0000
     atom:    5    charge:    4.0918    magn:   -0.0177    constr:    0.0000

     total cpu time spent up to now is      193.2 secs

     total energy              =   -1345.16889883 Ry
     Harris-Foulkes estimate   =   -1345.16891597 Ry
     estimated scf accuracy    <       0.00089225 Ry

     total magnetization       =     7.72 Bohr mag/cell
     absolute magnetization    =     8.07 Bohr mag/cell

     iteration # 18     ecut=   120.00 Ry     beta=0.70
     Davidson diagonalization with overlap
     ethr =  8.51E-07,  avg # of iterations =  1.0

     negative rho (up, down):  0.000E+00 2.777E-04
 
     Magnetic moment per site:
     atom:    1    charge:   12.8369    magn:    1.5484    constr:    0.0000
     atom:    2    charge:   12.8369    magn:    1.5484    constr:    0.0000
     atom:    3    charge:   12.8369    magn:    1.5484    constr:    0.0000
     atom:    4    charge:   12.7744    magn:    2.6672    constr:    0.0000
     atom:    5    charge:    4.0964    magn:   -0.0044    constr:    0.0000

     total cpu time spent up to now is      202.6 secs

     total energy              =   -1345.16868843 Ry
     Harris-Foulkes estimate   =   -1345.16890602 Ry
     estimated scf accuracy    <       0.00070795 Ry

     total magnetization       =     7.74 Bohr mag/cell
     absolute magnetization    =     8.09 Bohr mag/cell

     iteration # 19     ecut=   120.00 Ry     beta=0.70
     Davidson diagonalization with overlap
     ethr =  8.51E-07,  avg # of iterations =  2.0

     negative rho (up, down):  0.000E+00 2.680E-04
 
     Magnetic moment per site:
     atom:    1    charge:   12.8372    magn:    1.5335    constr:    0.0000
     atom:    2    charge:   12.8372    magn:    1.5335    constr:    0.0000
     atom:    3    charge:   12.8372    magn:    1.5335    constr:    0.0000
     atom:    4    charge:   12.7743    magn:    2.6665    constr:    0.0000
     atom:    5    charge:    4.0957    magn:   -0.0055    constr:    0.0000

     total cpu time spent up to now is      212.9 secs

     total energy              =   -1345.16889990 Ry
     Harris-Foulkes estimate   =   -1345.16887156 Ry
     estimated scf accuracy    <       0.00012260 Ry

     total magnetization       =     7.84 Bohr mag/cell
     absolute magnetization    =     8.19 Bohr mag/cell

     iteration # 20     ecut=   120.00 Ry     beta=0.70
     Davidson diagonalization with overlap
     ethr =  1.78E-07,  avg # of iterations =  1.1

     negative rho (up, down):  0.000E+00 2.378E-04
 
     Magnetic moment per site:
     atom:    1    charge:   12.8375    magn:    1.4850    constr:    0.0000
     atom:    2    charge:   12.8375    magn:    1.4850    constr:    0.0000
     atom:    3    charge:   12.8375    magn:    1.4850    constr:    0.0000
     atom:    4    charge:   12.7740    magn:    2.6510    constr:    0.0000
     atom:    5    charge:    4.0956    magn:   -0.0030    constr:    0.0000

     total cpu time spent up to now is      222.6 secs

     total energy              =   -1345.16880089 Ry
     Harris-Foulkes estimate   =   -1345.16891494 Ry
     estimated scf accuracy    <       0.00011439 Ry

     total magnetization       =     7.81 Bohr mag/cell
     absolute magnetization    =     8.15 Bohr mag/cell

     iteration # 21     ecut=   120.00 Ry     beta=0.70
     Davidson diagonalization with overlap
     ethr =  1.66E-07,  avg # of iterations =  2.7

     negative rho (up, down):  0.000E+00 2.379E-04
 
     Magnetic moment per site:
     atom:    1    charge:   12.8376    magn:    1.4844    constr:    0.0000
     atom:    2    charge:   12.8376    magn:    1.4844    constr:    0.0000
     atom:    3    charge:   12.8376    magn:    1.4844    constr:    0.0000
     atom:    4    charge:   12.7741    magn:    2.6530    constr:    0.0000
     atom:    5    charge:    4.0954    magn:   -0.0041    constr:    0.0000

     total cpu time spent up to now is      234.4 secs

     total energy              =   -1345.16898065 Ry
     Harris-Foulkes estimate   =   -1345.16897959 Ry
     estimated scf accuracy    <       0.00000709 Ry

     total magnetization       =     7.67 Bohr mag/cell
     absolute magnetization    =     8.03 Bohr mag/cell

     iteration # 22     ecut=   120.00 Ry     beta=0.70
     Davidson diagonalization with overlap
     ethr =  1.03E-08,  avg # of iterations =  2.0

     negative rho (up, down):  0.000E+00 2.393E-04
 
     Magnetic moment per site:
     atom:    1    charge:   12.8378    magn:    1.4854    constr:    0.0000
     atom:    2    charge:   12.8378    magn:    1.4854    constr:    0.0000
     atom:    3    charge:   12.8378    magn:    1.4854    constr:    0.0000
     atom:    4    charge:   12.7743    magn:    2.6539    constr:    0.0000
     atom:    5    charge:    4.0953    magn:   -0.0041    constr:    0.0000

     total cpu time spent up to now is      244.0 secs

     total energy              =   -1345.16898114 Ry
     Harris-Foulkes estimate   =   -1345.16898156 Ry
     estimated scf accuracy    <       0.00000380 Ry

     total magnetization       =     7.67 Bohr mag/cell
     absolute magnetization    =     8.02 Bohr mag/cell

     iteration # 23     ecut=   120.00 Ry     beta=0.70
     Davidson diagonalization with overlap
     ethr =  5.50E-09,  avg # of iterations =  2.3

     negative rho (up, down):  0.000E+00 2.398E-04
 
     Magnetic moment per site:
     atom:    1    charge:   12.8379    magn:    1.4864    constr:    0.0000
     atom:    2    charge:   12.8379    magn:    1.4864    constr:    0.0000
     atom:    3    charge:   12.8379    magn:    1.4864    constr:    0.0000
     atom:    4    charge:   12.7743    magn:    2.6540    constr:    0.0000
     atom:    5    charge:    4.0953    magn:   -0.0039    constr:    0.0000

     total cpu time spent up to now is      253.7 secs

     total energy              =   -1345.16898217 Ry
     Harris-Foulkes estimate   =   -1345.16898215 Ry
     estimated scf accuracy    <       0.00000009 Ry

     total magnetization       =     7.68 Bohr mag/cell
     absolute magnetization    =     8.03 Bohr mag/cell

     iteration # 24     ecut=   120.00 Ry     beta=0.70
     Davidson diagonalization with overlap
     ethr =  1.35E-10,  avg # of iterations =  3.3

     negative rho (up, down):  0.000E+00 2.396E-04
 
     Magnetic moment per site:
     atom:    1    charge:   12.8378    magn:    1.4866    constr:    0.0000
     atom:    2    charge:   12.8378    magn:    1.4866    constr:    0.0000
     atom:    3    charge:   12.8378    magn:    1.4866    constr:    0.0000
     atom:    4    charge:   12.7743    magn:    2.6542    constr:    0.0000
     atom:    5    charge:    4.0953    magn:   -0.0039    constr:    0.0000

     total cpu time spent up to now is      266.8 secs

     total energy              =   -1345.16898230 Ry
     Harris-Foulkes estimate   =   -1345.16898231 Ry
     estimated scf accuracy    <       0.00000007 Ry

     total magnetization       =     7.68 Bohr mag/cell
     absolute magnetization    =     8.03 Bohr mag/cell

     iteration # 25     ecut=   120.00 Ry     beta=0.70
     Davidson diagonalization with overlap
     ethr =  1.00E-10,  avg # of iterations =  2.2

     negative rho (up, down):  0.000E+00 2.399E-04
 
     Magnetic moment per site:
     atom:    1    charge:   12.8378    magn:    1.4872    constr:    0.0000
     atom:    2    charge:   12.8378    magn:    1.4872    constr:    0.0000
     atom:    3    charge:   12.8378    magn:    1.4872    constr:    0.0000
     atom:    4    charge:   12.7743    magn:    2.6540    constr:    0.0000
     atom:    5    charge:    4.0954    magn:   -0.0037    constr:    0.0000

     total cpu time spent up to now is      276.7 secs

     total energy              =   -1345.16898231 Ry
     Harris-Foulkes estimate   =   -1345.16898234 Ry
     estimated scf accuracy    <       0.00000023 Ry

     total magnetization       =     7.68 Bohr mag/cell
     absolute magnetization    =     8.03 Bohr mag/cell

     iteration # 26     ecut=   120.00 Ry     beta=0.70
     Davidson diagonalization with overlap
     ethr =  1.00E-10,  avg # of iterations =  2.0

     negative rho (up, down):  0.000E+00 2.400E-04
 
     Magnetic moment per site:
     atom:    1    charge:   12.8378    magn:    1.4874    constr:    0.0000
     atom:    2    charge:   12.8378    magn:    1.4874    constr:    0.0000
     atom:    3    charge:   12.8378    magn:    1.4874    constr:    0.0000
     atom:    4    charge:   12.7743    magn:    2.6540    constr:    0.0000
     atom:    5    charge:    4.0954    magn:   -0.0037    constr:    0.0000

     total cpu time spent up to now is      286.2 secs

     End of self-consistent calculation

 ------ SPIN UP ------------


          k = 0.0000 0.0000 0.0000 (  7441 PWs)   bands (ev):

   -69.9378 -69.2599 -69.2055 -69.2055 -35.9985 -35.9985 -35.9985 -35.6159
   -35.6159 -35.6159 -35.1588 -35.1588 -35.1588 -35.1521 -35.1521 -35.1521
     0.3456  11.4282  13.3303  13.3303  13.3303  13.8398  13.8398  14.1052
    14.1052  14.1052  16.0925  16.0925  16.0925  17.1988  17.1988  17.8464
    17.8464  18.3988  18.3988  18.3988  18.4662  18.4662  18.4662  18.4679
    21.8876  23.7553

          k = 0.0000 0.0000 0.1111 (  7376 PWs)   bands (ev):

   -69.9376 -69.2585 -69.2070 -69.2055 -35.9975 -35.9975 -35.9971 -35.6147
   -35.6147 -35.6136 -35.1597 -35.1597 -35.1590 -35.1570 -35.1533 -35.1533
     0.4152  11.4855  12.9272  13.1104  13.1104  13.9192  13.9308  14.1576
    14.3443  14.3443  16.0279  16.1465  16.1465  17.2218  17.2576  17.8149
    17.8704  18.3142  18.3142  18.3987  18.3987  18.3989  18.4069  18.4650
    21.9637  23.2364

          k = 0.0000 0.0000 0.2222 (  7428 PWs)   bands (ev):

   -69.9374 -69.2546 -69.2112 -69.2055 -35.9950 -35.9950 -35.9937 -35.6117
   -35.6117 -35.6077 -35.1695 -35.1626 -35.1626 -35.1598 -35.1561 -35.1561
     0.6003  11.3378  12.5044  12.7673  12.7673  14.0814  14.1356  14.3092
    14.7511  14.7511  15.8451  16.2725  16.2725  17.1947  17.2862  17.7247
    17.7690  17.9545  17.9545  18.2398  18.3993  18.4020  18.4020  18.4623
    22.1776  22.5170

          k = 0.0000 0.0000 0.3333 (  7420 PWs)   bands (ev):

   -69.9371 -69.2489 -69.2171 -69.2055 -35.9922 -35.9922 -35.9899 -35.6082
   -35.6082 -35.6002 -35.1845 -35.1663 -35.1663 -35.1606 -35.1590 -35.1590
     0.8281  10.6697  12.4974  12.4974  12.8461  14.1978  14.4176  14.5425
    15.1429  15.1429  15.5763  16.3649  16.3649  16.9840  17.3215  17.3619
    17.5818  17.5818  17.6129  18.0176  18.3997  18.4149  18.4149  18.4595
    22.0443  22.5716

          k = 0.0000 0.0000 0.4444 (  7428 PWs)   bands (ev):

   -69.9369 -69.2436 -69.2227 -69.2054 -35.9903 -35.9903 -35.9873 -35.6059
   -35.6059 -35.5949 -35.1946 -35.1689 -35.1689 -35.1611 -35.1607 -35.1607
     0.9889  10.1829  12.3531  12.3531  13.4008  14.1249  14.6319  14.8082
    15.2875  15.4351  15.4351  16.3335  16.3335  16.7322  16.9442  17.3465
    17.3747  17.3747  17.6404  17.8049  18.4000  18.4301  18.4301  18.4578
    21.9110  22.7894

          k = 0.0000 0.1111 0.1111 (  7387 PWs)   bands (ev):

   -69.9375 -69.2572 -69.2077 -69.2063 -35.9979 -35.9966 -35.9949 -35.6258
   -35.6135 -35.5994 -35.1701 -35.1607 -35.1603 -35.1570 -35.1546 -35.1482
     0.4850  11.5394  12.6986  12.8569  12.9538  13.9964  14.0042  14.2127
    14.4873  14.5138  16.0042  16.1631  16.1929  17.2492  17.2732  17.7263
    17.7836  18.2264  18.2643  18.3186  18.3249  18.4105  18.4795  18.5430
    22.0243  23.4382

          k = 0.0000 0.1111 0.2222 (  7401 PWs)   bands (ev):

   -69.9373 -69.2533 -69.2114 -69.2065 -35.9963 -35.9942 -35.9916 -35.6334
   -35.6103 -35.5834 -35.1854 -35.1652 -35.1634 -35.1582 -35.1576 -35.1439
     0.6703  11.3590  12.2605  12.6631  12.6766  14.1574  14.2070  14.3627
    14.8146  14.8592  15.8420  16.2816  16.2892  17.1601  17.3238  17.4384
    17.5846  17.9118  18.1403  18.1987  18.2425  18.3842  18.5588  18.6828
    22.2028  22.6703

          k = 0.0000 0.1111 0.3333 (  7417 PWs)   bands (ev):

   -69.9370 -69.2477 -69.2172 -69.2066 -35.9936 -35.9914 -35.9890 -35.6371
   -35.6066 -35.5694 -35.2007 -35.1703 -35.1670 -35.1606 -35.1601 -35.1417
     0.8986  10.6615  12.1385  12.4161  12.9460  14.2829  14.4862  14.5916
    15.1754  15.2149  15.5806  16.2920  16.3937  16.9297  17.0980  17.2661
    17.4908  17.5579  17.8569  18.0738  18.1802  18.3778  18.6304  18.6763
    22.2619  22.4505

          k = 0.0000 0.1111 0.4444 (  7430 PWs)   bands (ev):

   -69.9368 -69.2424 -69.2227 -69.2066 -35.9911 -35.9896 -35.9880 -35.6384
   -35.6042 -35.5610 -35.2104 -35.1735 -35.1697 -35.1624 -35.1616 -35.1408
     1.0599  10.1714  12.0377  12.2807  13.4694  14.2195  14.7013  14.8579
    15.2909  15.4591  15.4818  16.1378  16.3914  16.6632  16.8644  17.2559
    17.3559  17.4660  17.7085  17.8999  18.1439  18.3757  18.6543  18.6763
    22.1432  22.6124

          k = 0.0000 0.2222 0.2222 (  7419 PWs)   bands (ev):

   -69.9371 -69.2497 -69.2131 -69.2086 -35.9966 -35.9919 -35.9895 -35.6519
   -35.6068 -35.5579 -35.2067 -35.1678 -35.1658 -35.1612 -35.1599 -35.1303
     0.8565  11.2948  11.5676  12.4409  12.7897  14.3579  14.3839  14.5053
    15.0145  15.1105  15.7601  16.2753  16.3632  17.0230  17.0281  17.3108
    17.4590  17.7429  18.0349  18.0890  18.2582  18.3354  18.7090  18.9948
    22.1162  22.9987

          k = 0.0000 0.2222 0.3333 (  7446 PWs)   bands (ev):

   -69.9369 -69.2444 -69.2177 -69.2095 -35.9952 -35.9894 -35.9889 -35.6644
   -35.6027 -35.5373 -35.2248 -35.1707 -35.1690 -35.1648 -35.1622 -35.1213
     1.0864  10.6285  11.3678  12.2333  13.1804  14.5166  14.6615  14.7166
    15.2790  15.3909  15.5584  16.0665  16.4963  16.7581  16.8089  17.1024
    17.4759  17.6362  17.8034  17.9584  18.1972  18.3525  18.8363  19.0297
    21.9458  22.8237

          k = 0.0000 0.2222 0.4444 (  7436 PWs)   bands (ev):

   -69.9367 -69.2392 -69.2228 -69.2097 -35.9929 -35.9899 -35.9877 -35.6704
   -35.6000 -35.5255 -35.2352 -35.1726 -35.1716 -35.1667 -35.1638 -35.1168
     1.2492  10.1369  11.3033  12.1147  13.6800  14.4694  14.8912  14.9682
    15.2997  15.4961  15.5999  15.8228  16.5520  16.5538  16.6118  17.0971
    17.2983  17.5292  17.8755  17.8803  18.1781  18.2119  18.9130  18.9635
    21.9129  22.7459

          k = 0.0000 0.3333 0.3333 (  7437 PWs)   bands (ev):

   -69.9367 -69.2394 -69.2194 -69.2129 -35.9956 -35.9901 -35.9871 -35.6838
   -35.5981 -35.5119 -35.2444 -35.1715 -35.1707 -35.1693 -35.1647 -35.1065
     1.3189  10.5583  10.5960  12.0539  13.5744  14.8388  14.8438  14.8886
    15.4142  15.4606  15.5954  15.7409  16.5556  16.6485  16.6583  16.8991
    17.3286  17.6098  17.7588  17.9058  18.0441  18.5484  19.0048  19.1750
    21.2663  23.3557

          k = 0.0000 0.3333 0.4444 (  7434 PWs)   bands (ev):

   -69.9365 -69.2343 -69.2229 -69.2145 -35.9946 -35.9923 -35.9856 -35.6938
   -35.5950 -35.4979 -35.2552 -35.1737 -35.1717 -35.1706 -35.1665 -35.0988
     1.4839  10.0901  10.5352  11.9485  14.0226  14.7995  15.0854  15.1287
    15.2957  15.5102  15.5586  15.7468  16.4021  16.4744  16.7782  16.8321
    17.2037  17.4004  17.6215  17.9745  18.1743  18.5814  19.1034  19.1304
    20.9082  23.4490

          k = 0.0000 0.4444 0.4444 (  7418 PWs)   bands (ev):

   -69.9364 -69.2288 -69.2234 -69.2197 -35.9952 -35.9944 -35.9843 -35.7061
   -35.5918 -35.4827 -35.2661 -35.1752 -35.1749 -35.1693 -35.1684 -35.0892
     1.6508  10.0559  10.0563  11.8498  14.3683  15.0251  15.1863  15.2543
    15.2594  15.4094  15.5749  15.8595  16.3144  16.3961  16.5773  16.9875
    17.1142  17.2353  17.4102  17.8582  18.3845  18.9448  19.1756  19.2134
    20.1308  23.9984

          k = 0.1111 0.1111 0.1111 (  7415 PWs)   bands (ev):

   -69.9375 -69.2558 -69.2077 -69.2077 -35.9972 -35.9972 -35.9926 -35.6380
   -35.5982 -35.5982 -35.1731 -35.1693 -35.1693 -35.1503 -35.1485 -35.1485
     0.5549  11.5895  12.5637  12.5637  12.8356  14.0722  14.0722  14.3899
    14.3899  14.7344  15.9889  16.2026  16.2026  17.2673  17.2673  17.6647
    17.6647  17.9915  18.1239  18.3446  18.3446  18.4204  18.6415  18.6415
    22.0745  23.5627

          k = 0.1111 0.1111 0.2222 (  7420 PWs)   bands (ev):

   -69.9372 -69.2521 -69.2116 -69.2076 -35.9962 -35.9954 -35.9894 -35.6502
   -35.5953 -35.5778 -35.1897 -35.1797 -35.1711 -35.1506 -35.1456 -35.1433
     0.7405  11.3711  12.1432  12.2979  12.7589  14.2328  14.2779  14.4629
    14.7624  15.0136  15.8445  16.2851  16.2956  17.1767  17.2946  17.3844
    17.4083  17.7639  17.9275  18.2180  18.3457  18.3569  18.8025  18.8333
    22.2210  22.8350

          k = 0.1111 0.1111 0.3333 (  7425 PWs)   bands (ev):

   -69.9370 -69.2466 -69.2173 -69.2076 -35.9934 -35.9933 -35.9875 -35.6577
   -35.5920 -35.5604 -35.2059 -35.1884 -35.1721 -35.1523 -35.1463 -35.1392
     0.9694  10.6462  12.0641  12.0769  13.0384  14.3641  14.5551  14.6652
    15.1714  15.2807  15.5911  16.2784  16.3447  16.9172  17.0713  17.1120
    17.4314  17.6067  17.7047  18.0902  18.2508  18.3345  18.6815  18.9929
    22.4190  22.4436

          k = 0.1111 0.1111 0.4444 (  7425 PWs)   bands (ev):

   -69.9368 -69.2414 -69.2227 -69.2076 -35.9920 -35.9901 -35.9877 -35.6610
   -35.5897 -35.5502 -35.2159 -35.1934 -35.1727 -35.1535 -35.1478 -35.1372
     1.1312  10.1543  11.9341  12.0078  13.5366  14.3076  14.7713  14.9235
    15.3013  15.4553  15.5309  16.0760  16.2785  16.6263  16.9678  17.0975
    17.3345  17.4995  17.7097  17.9307  18.1849  18.3242  18.5243  19.0843
    22.3371  22.5624

          k = 0.1111 0.2222 0.2222 (  7419 PWs)   bands (ev):

   -69.9370 -69.2486 -69.2131 -69.2098 -35.9966 -35.9945 -35.9871 -35.6703
   -35.5862 -35.5570 -35.2078 -35.1848 -35.1813 -35.1462 -35.1453 -35.1306
     0.9273  11.2971  11.4891  12.0699  12.8957  14.4284  14.4569  14.6315
    14.9393  15.2091  15.7706  16.2701  16.3405  17.0321  17.0922  17.2146
    17.3962  17.5445  17.7227  18.2485  18.2502  18.3223  19.0781  19.1110
    22.1897  23.1066

          k = 0.1111 0.2222 0.3333 (  7424 PWs)   bands (ev):

   -69.9368 -69.2434 -69.2178 -69.2105 -35.9956 -35.9930 -35.9864 -35.6846
   -35.5817 -35.5357 -35.2251 -35.1934 -35.1834 -35.1471 -35.1439 -35.1214
     1.1580  10.5981  11.3113  11.9148  13.2658  14.5778  14.7284  14.8339
    15.2641  15.3768  15.5840  16.1027  16.3724  16.7655  16.9130  17.0318
    17.4424  17.4786  17.6150  18.1525  18.1981  18.2549  18.9971  19.3342
    22.0571  22.8863

          k = 0.1111 0.2222 0.4444 (  7433 PWs)   bands (ev):

   -69.9367 -69.2383 -69.2228 -69.2106 -35.9939 -35.9918 -35.9873 -35.6917
   -35.5791 -35.5232 -35.2351 -35.1990 -35.1839 -35.1479 -35.1439 -35.1168
     1.3215  10.1074  11.2413  11.8218  13.7360  14.5295  14.9599  15.0714
    15.3037  15.4788  15.6041  15.8652  16.2993  16.5438  16.8774  16.9679
    17.3029  17.4484  17.7968  18.0508  18.1013  18.2337  18.7433  19.4756
    22.0154  22.8359

          k = 0.1111 0.3333 0.3333 (  7432 PWs)   bands (ev):

   -69.9366 -69.2387 -69.2193 -69.2137 -35.9964 -35.9930 -35.9865 -35.7047
   -35.5762 -35.5115 -35.2433 -35.1949 -35.1921 -35.1453 -35.1439 -35.1066
     1.3917  10.5243  10.5393  11.7569  13.6362  14.8228  14.9042  15.0690
    15.3300  15.4723  15.5698  15.9052  16.3671  16.6365  16.7530  16.9588
    17.3281  17.3358  17.7958  18.0119  18.1092  18.3400  19.2239  19.4683
    21.3620  23.2566

          k = 0.1111 0.3333 0.4444 (  7432 PWs)   bands (ev):

   -69.9365 -69.2338 -69.2229 -69.2151 -35.9957 -35.9939 -35.9868 -35.7153
   -35.5732 -35.4975 -35.2535 -35.1993 -35.1933 -35.1451 -35.1438 -35.0988
     1.5577  10.0488  10.4834  11.6624  14.0412  14.7952  15.0913  15.2866
    15.2947  15.5096  15.5626  15.9178  16.2901  16.4465  16.7285  16.9213
    17.2033  17.3112  17.8572  17.9769  18.0308  18.4894  19.0174  19.6597
    20.9542  23.3827

          k = 0.1111 0.4444 0.4444 (  7433 PWs)   bands (ev):

   -69.9364 -69.2285 -69.2234 -69.2199 -35.9964 -35.9957 -35.9866 -35.7279
   -35.5700 -35.4826 -35.2638 -35.1991 -35.1987 -35.1441 -35.1438 -35.0892
     1.7260  10.0075  10.0094  11.5676  14.3233  14.9819  15.0456  15.2048
    15.5464  15.5521  15.6302  16.0538  16.2563  16.3622  16.5049  16.9242
    17.1745  17.2220  17.6752  17.9348  18.0859  18.8783  19.1709  19.7005
    20.1200  23.7365

          k = 0.2222 0.2222 0.2222 (  7436 PWs)   bands (ev):

   -69.9369 -69.2454 -69.2131 -69.2131 -35.9965 -35.9965 -35.9854 -35.6960
   -35.5547 -35.5547 -35.2153 -35.1980 -35.1980 -35.1331 -35.1331 -35.1290
     1.1157  11.2709  11.3112  11.3112  13.1135  14.6226  14.6226  14.9422
    14.9422  15.3044  15.7319  16.2798  16.2798  16.9695  16.9695  17.2828
    17.2828  17.2926  17.4276  18.2289  18.2289  18.3823  19.4150  19.4150
    22.2837  23.0623

          k = 0.2222 0.2222 0.3333 (  7428 PWs)   bands (ev):

   -69.9367 -69.2406 -69.2180 -69.2131 -35.9965 -35.9964 -35.9860 -35.7151
   -35.5520 -35.5287 -35.2293 -35.2109 -35.2006 -35.1330 -35.1253 -35.1195
     1.3490  10.5169  11.1354  11.2355  13.4790  14.7341  14.8922  15.1009
    15.2920  15.2959  15.6691  16.1483  16.2344  16.7245  16.7865  17.1820
    17.1851  17.3777  17.5210  18.1620  18.2201  18.3169  19.2422  19.7644
    22.2489  22.6938

          k = 0.2222 0.2222 0.4444 (  7437 PWs)   bands (ev):

   -69.9366 -69.2358 -69.2228 -69.2131 -35.9964 -35.9947 -35.9881 -35.7251
   -35.5502 -35.5141 -35.2383 -35.2180 -35.2009 -35.1336 -35.1219 -35.1141
     1.5148  10.0325  11.0318  11.1936  13.8849  14.6649  15.1476  15.1483
    15.4034  15.4928  15.6119  15.9870  16.1840  16.4977  16.7717  17.0068
    17.1471  17.5604  17.7236  18.0970  18.1971  18.2426  18.8112  20.0147
    22.2604  22.3758

          k = 0.2222 0.3333 0.3333 (  7440 PWs)   bands (ev):

   -69.9366 -69.2365 -69.2193 -69.2159 -35.9982 -35.9973 -35.9879 -35.7390
   -35.5394 -35.5103 -35.2412 -35.2162 -35.2127 -35.1242 -35.1228 -35.1067
     1.5864  10.4048  10.4372  11.0622  13.7835  14.8930  14.9975  15.1539
    15.4040  15.4574  15.8017  16.1028  16.2136  16.6141  16.6345  16.9622
    17.3043  17.3493  17.6465  18.1533  18.2327  18.2826  19.4029  19.9187
    21.6315  22.6894

          k = 0.2222 0.3333 0.4444 (  7431 PWs)   bands (ev):

   -69.9365 -69.2320 -69.2229 -69.2168 -35.9986 -35.9974 -35.9904 -35.7517
   -35.5362 -35.4960 -35.2496 -35.2220 -35.2141 -35.1238 -35.1188 -35.0989
     1.7557   9.9479  10.3579  10.9828  14.0725  14.8051  15.0275  15.2239
    15.4903  15.7150  15.8754  16.1622  16.1881  16.4236  16.6205  16.8041
    17.2863  17.5125  17.7759  18.1067  18.1700  18.3885  19.0271  20.2485
    21.0541  22.6441

          k = 0.2222 0.4444 0.4444 (  7437 PWs)   bands (ev):

   -69.9364 -69.2277 -69.2234 -69.2207 -35.9994 -35.9991 -35.9925 -35.7661
   -35.5317 -35.4824 -35.2579 -35.2217 -35.2211 -35.1189 -35.1187 -35.0892
     1.9279   9.8899   9.8972  10.8925  14.2097  14.8981  14.9500  15.0893
    15.6725  16.0017  16.1140  16.2025  16.2637  16.3991  16.5124  16.6598
    17.4072  17.4420  17.8218  17.9834  18.1016  18.7649  19.1474  19.9411
    20.4399  22.9023

          k = 0.3333 0.3333 0.3333 (  7424 PWs)   bands (ev):

   -69.9365 -69.2331 -69.2193 -69.2193 -36.0002 -36.0002 -35.9915 -35.7667
   -35.5089 -35.5089 -35.2423 -35.2280 -35.2280 -35.1092 -35.1092 -35.1047
     1.8295  10.2648  10.2648  10.4019  13.9572  14.9422  14.9948  14.9948
    15.6696  15.6696  16.1354  16.2182  16.2182  16.5755  16.5755  16.7370
    17.4738  17.5589  17.5589  18.2043  18.2043  18.3428  19.7540  19.7540
    21.9453  21.9453

          k = 0.3333 0.3333 0.4444 (  7434 PWs)   bands (ev):

   -69.9364 -69.2295 -69.2230 -69.2193 -36.0016 -36.0008 -35.9952 -35.7817
   -35.5079 -35.4919 -35.2473 -35.2361 -35.2294 -35.1080 -35.1014 -35.0975
     2.0035   9.8388  10.1796  10.3016  14.0870  14.8132  14.9326  15.0661
    15.7101  15.9689  16.2187  16.2973  16.3763  16.5447  16.5854  16.7069
    17.4823  17.6859  17.7216  18.2227  18.2883  18.3199  19.0867  20.2695
    21.0595  21.9463

          k = 0.3333 0.4444 0.4444 (  7434 PWs)   bands (ev):

   -69.9363 -69.2265 -69.2233 -69.2219 -36.0029 -36.0028 -35.9991 -35.7981
   -35.4997 -35.4822 -35.2513 -35.2379 -35.2372 -35.0998 -35.0995 -35.0892
     2.1818   9.7652   9.7774  10.1657  14.0873  14.8239  14.8782  14.9435
    15.8651  16.0634  16.2514  16.2633  16.4468  16.8100  16.8160  16.9892
    17.6314  17.6609  17.7498  18.2083  18.2606  18.5491  19.0744  19.6187
    20.9370  21.9309

          k = 0.4444 0.4444 0.4444 (  7457 PWs)   bands (ev):

   -69.9363 -69.2250 -69.2233 -69.2233 -36.0051 -36.0051 -36.0037 -35.8157
   -35.4820 -35.4820 -35.2478 -35.2455 -35.2455 -35.0896 -35.0896 -35.0888
     2.3651   9.6882   9.6882   9.7165  14.0124  14.7931  14.8336  14.8336
    16.0118  16.0118  16.2633  16.2633  16.3297  17.4467  17.4467  17.4749
    17.7444  17.7444  17.9043  18.3149  18.3149  18.3178  18.9399  18.9399
    21.2443  21.2443

 ------ SPIN DOWN ----------


          k = 0.0000 0.0000 0.0000 (  7441 PWs)   bands (ev):

   -67.3635 -67.3028 -67.3028 -66.5337 -33.9865 -33.9865 -33.9865 -33.2304
   -33.2304 -33.2304 -33.1918 -33.1918 -33.1918 -32.6390 -32.6390 -32.6390
     0.4463  11.7279  13.3947  13.3947  13.3947  15.2109  15.2109  15.5337
    15.5337  15.5337  18.0413  18.0413  18.0413  18.7049  18.7049  20.2818
    20.2818  20.2818  20.4084  20.4084  20.5094  20.8710  20.8710  20.8710
    23.0637  23.9614

          k = 0.0000 0.0000 0.1111 (  7376 PWs)   bands (ev):

   -67.3619 -67.3044 -67.3028 -66.5338 -33.9853 -33.9853 -33.9848 -33.2308
   -33.2294 -33.2294 -33.1928 -33.1928 -33.1920 -32.6419 -32.6402 -32.6402
     0.5152  11.7588  13.0943  13.2812  13.2812  15.2708  15.3102  15.5909
    15.6869  15.6869  17.9636  18.1037  18.1037  18.7114  18.8016  20.2361
    20.2361  20.2820  20.3479  20.3647  20.4466  20.6206  20.6206  20.8710
    23.1050  23.6079

          k = 0.0000 0.0000 0.2222 (  7428 PWs)   bands (ev):

   -67.3571 -67.3089 -67.3027 -66.5340 -33.9822 -33.9822 -33.9804 -33.2318
   -33.2268 -33.2268 -33.1957 -33.1957 -33.1930 -32.6492 -32.6432 -32.6432
     0.6979  11.5211  12.8548  13.0419  13.0419  15.3358  15.5858  15.7546
    16.0361  16.0361  17.7482  18.2774  18.2774  18.7208  18.8141  19.9889
    19.9889  20.1246  20.1430  20.2202  20.2202  20.2824  20.3768  20.8712
    23.0983  23.2967

          k = 0.0000 0.0000 0.3333 (  7420 PWs)   bands (ev):

   -67.3502 -67.3155 -67.3027 -66.5342 -33.9786 -33.9786 -33.9753 -33.2329
   -33.2240 -33.2240 -33.1988 -33.1988 -33.1940 -32.6576 -32.6467 -32.6467
     0.9224  10.8626  12.8210  12.8210  13.2719  15.2194  15.9598  15.9956
    16.4090  16.4090  17.4489  18.5183  18.5183  18.5894  18.7029  19.4686
    19.4686  19.7690  19.8264  20.0527  20.0527  20.2830  20.3217  20.8714
    22.9357  23.5441

          k = 0.0000 0.0000 0.4444 (  7428 PWs)   bands (ev):

   -67.3437 -67.3218 -67.3027 -66.5344 -33.9762 -33.9762 -33.9720 -33.2336
   -33.2222 -33.2222 -33.2008 -33.2008 -33.1946 -32.6632 -32.6491 -32.6491
     1.0802  10.3965  12.6955  12.6955  13.9348  14.7949  16.2271  16.2618
    16.6611  16.6611  17.1797  18.4157  18.6444  18.7638  18.7638  19.0533
    19.0533  19.4983  19.6039  19.9435  19.9435  20.2833  20.2857  20.8716
    22.9017  23.7480

          k = 0.0000 0.1111 0.1111 (  7387 PWs)   bands (ev):

   -67.3602 -67.3051 -67.3036 -66.5338 -33.9980 -33.9841 -33.9693 -33.2348
   -33.2284 -33.2275 -33.1975 -33.1939 -33.1865 -32.6456 -32.6414 -32.6398
     0.5842  11.7910  12.8621  13.1406  13.1802  15.3469  15.3814  15.6569
    15.8148  15.8156  17.9273  18.1264  18.1580  18.7525  18.7970  20.1519
    20.1887  20.2138  20.2574  20.3574  20.4304  20.5236  20.5314  20.7752
    23.1400  23.8586

          k = 0.0000 0.1111 0.2222 (  7401 PWs)   bands (ev):

   -67.3556 -67.3092 -67.3039 -66.5340 -34.0073 -33.9810 -33.9532 -33.2420
   -33.2257 -33.2253 -33.2008 -33.1968 -33.1813 -32.6520 -32.6445 -32.6420
     0.7671  11.5463  12.5127  12.9611  13.0785  15.4219  15.6388  15.8237
    16.1195  16.1288  17.7351  18.2829  18.2973  18.6949  18.7302  19.8203
    19.9571  19.9617  20.0877  20.2028  20.3615  20.3780  20.4820  20.7406
    23.2074  23.4014

          k = 0.0000 0.1111 0.3333 (  7417 PWs)   bands (ev):

   -67.3489 -67.3156 -67.3039 -66.5343 -34.0130 -33.9774 -33.9396 -33.2490
   -33.2229 -33.2227 -33.2030 -33.1999 -33.1780 -32.6580 -32.6480 -32.6457
     0.9918  10.8683  12.4341  12.7536  13.4033  15.3134  16.0060  16.0655
    16.4580  16.4685  17.4444  18.3446  18.4940  18.5278  18.6586  19.4839
    19.5003  19.7221  19.8941  19.9375  20.2481  20.3630  20.3846  20.7413
    23.1204  23.4633

          k = 0.0000 0.1111 0.4444 (  7430 PWs)   bands (ev):

   -67.3425 -67.3218 -67.3039 -66.5344 -34.0156 -33.9751 -33.9318 -33.2534
   -33.2211 -33.2209 -33.2043 -33.2019 -33.1766 -32.6614 -32.6504 -32.6486
     1.1500  10.3979  12.3630  12.6343  14.0100  14.9061  16.3028  16.3042
    16.6884  16.7033  17.1804  18.1823  18.3308  18.7858  18.7918  19.0852
    19.3047  19.5824  19.6176  19.8229  20.1431  20.3062  20.3647  20.7429
    23.1033  23.5995

          k = 0.0000 0.2222 0.2222 (  7419 PWs)   bands (ev):

   -67.3513 -67.3109 -67.3061 -66.5342 -34.0287 -33.9780 -33.9266 -33.2581
   -33.2254 -33.2229 -33.2045 -33.1996 -33.1668 -32.6559 -32.6477 -32.6419
     0.9505  11.4993  11.8223  12.7779  13.2518  15.6153  15.7743  15.9975
    16.3299  16.3639  17.6312  18.2676  18.3697  18.5063  18.5789  19.6840
    19.7682  19.8183  19.9191  20.0935  20.4440  20.4477  20.5159  20.6849
    23.1194  23.9535

          k = 0.0000 0.2222 0.3333 (  7446 PWs)   bands (ev):

   -67.3451 -67.3159 -67.3071 -66.5344 -34.0437 -33.9746 -33.9055 -33.2717
   -33.2252 -33.2197 -33.2088 -33.2028 -33.1557 -32.6576 -32.6513 -32.6444
     1.1763  10.8719  11.6512  12.5969  13.6637  15.5700  16.0781  16.2383
    16.5926  16.6218  17.4055  17.9799  18.2660  18.5840  18.5889  19.5186
    19.5369  19.7120  19.7452  19.8918  20.4109  20.4113  20.4840  20.6813
    23.0118  23.7346

          k = 0.0000 0.2222 0.4444 (  7436 PWs)   bands (ev):

   -67.3390 -67.3217 -67.3073 -66.5345 -34.0514 -33.9723 -33.8938 -33.2794
   -33.2241 -33.2176 -33.2126 -33.2048 -33.1498 -32.6570 -32.6538 -32.6476
     1.3355  10.3961  11.6141  12.4903  14.2184  15.2003  16.3420  16.4884
    16.7635  16.8473  17.1760  17.7083  18.1344  18.6119  18.8662  19.1782
    19.3755  19.6218  19.6730  19.8140  20.3956  20.4160  20.4754  20.5144
    23.0491  23.6574

          k = 0.0000 0.3333 0.3333 (  7437 PWs)   bands (ev):

   -67.3395 -67.3176 -67.3108 -66.5345 -34.0661 -33.9713 -33.8793 -33.2897
   -33.2276 -33.2161 -33.2159 -33.2060 -33.1380 -32.6553 -32.6551 -32.6446
     1.4038  10.8320  10.8970  12.4375  14.0756  15.8686  16.0262  16.4610
    16.7899  16.7993  17.2933  17.6319  18.0637  18.5080  18.7331  19.3589
    19.5308  19.5348  19.7317  19.9252  20.1462  20.5075  20.5137  20.8576
    22.5358  24.3136

          k = 0.0000 0.3333 0.4444 (  7434 PWs)   bands (ev):

   -67.3337 -67.3216 -67.3124 -66.5346 -34.0778 -33.9691 -33.8650 -33.2993
   -33.2279 -33.2220 -33.2139 -33.2080 -33.1284 -32.6577 -32.6519 -32.6467
     1.5646  10.3853  10.8477  12.3420  14.5570  15.6035  16.2206  16.6898
    16.8596  17.0667  17.1529  17.3662  17.9799  18.4027  18.9746  19.2076
    19.2668  19.5030  19.5853  20.0351  20.0963  20.5257  20.5915  20.7763
    22.3312  24.3169

          k = 0.0000 0.4444 0.4444 (  7418 PWs)   bands (ev):

   -67.3277 -67.3219 -67.3179 -66.5347 -34.0918 -33.9670 -33.8493 -33.3100
   -33.2301 -33.2284 -33.2114 -33.2101 -33.1168 -32.6602 -32.6482 -32.6465
     1.7269  10.3718  10.3757  12.2523  14.9228  15.9624  15.9825  16.8462
    16.9118  16.9144  17.1169  17.5509  17.9121  18.1335  19.0469  19.0621
    19.3047  19.4727  19.5338  19.7155  20.2630  20.5384  20.7786  20.8777
    21.8700  24.8268

          k = 0.1111 0.1111 0.1111 (  7415 PWs)   bands (ev):

   -67.3586 -67.3051 -67.3051 -66.5339 -34.0113 -33.9682 -33.9682 -33.2358
   -33.2305 -33.2305 -33.1954 -33.1954 -33.1826 -32.6494 -32.6407 -32.6407
     0.6532  11.8239  12.7772  12.7772  13.1936  15.4350  15.4350  15.7980
    15.7980  15.9801  17.8995  18.1710  18.1710  18.7708  18.7708  20.0058
    20.1168  20.1424  20.1424  20.4007  20.4007  20.4021  20.6835  20.6835
    23.1813  24.0628

          k = 0.1111 0.1111 0.2222 (  7420 PWs)   bands (ev):

   -67.3542 -67.3094 -67.3050 -66.5341 -34.0257 -33.9654 -33.9475 -33.2432
   -33.2378 -33.2285 -33.1953 -33.1926 -33.1769 -32.6551 -32.6430 -32.6425
     0.8363  11.5662  12.4036  12.5861  13.2016  15.5073  15.6959  15.9215
    16.1320  16.2325  17.7287  18.2748  18.2897  18.6804  18.6806  19.6477
    19.7884  19.9251  19.9929  20.2989  20.4493  20.4715  20.5383  20.7276
    23.2587  23.5525

          k = 0.1111 0.1111 0.3333 (  7425 PWs)   bands (ev):

   -67.3476 -67.3156 -67.3050 -66.5343 -34.0354 -33.9622 -33.9303 -33.2514
   -33.2454 -33.2238 -33.1935 -33.1923 -33.1726 -32.6591 -32.6470 -32.6456
     1.0614  10.8680  12.3699  12.3990  13.5157  15.4061  16.0633  16.1449
    16.4747  16.5169  17.4472  18.2333  18.3238  18.6237  18.6587  19.2552
    19.5476  19.7157  19.8098  20.1301  20.3508  20.3765  20.5340  20.6674
    23.2545  23.4791

          k = 0.1111 0.1111 0.4444 (  7425 PWs)   bands (ev):

   -67.3414 -67.3217 -67.3050 -66.5344 -34.0402 -33.9601 -33.9206 -33.2562
   -33.2501 -33.2197 -33.1937 -33.1921 -33.1705 -32.6600 -32.6517 -32.6474
     1.2200  10.3942  12.2893  12.3294  14.0815  15.0143  16.3636  16.3823
    16.6156  16.8203  17.1841  17.9899  18.2137  18.7874  18.8094  19.0185
    19.2800  19.6465  19.6876  20.0051  20.1067  20.3071  20.5544  20.6463
    23.2678  23.5692

          k = 0.1111 0.2222 0.2222 (  7419 PWs)   bands (ev):

   -67.3500 -67.3109 -67.3074 -66.5342 -34.0487 -33.9565 -33.9258 -33.2586
   -33.2400 -33.2388 -33.1904 -33.1873 -33.1654 -32.6591 -32.6448 -32.6421
     1.0201  11.5142  11.7664  12.3870  13.3762  15.7047  15.8411  16.1111
    16.3314  16.3851  17.6418  18.2109  18.2630  18.5894  18.6019  19.4318
    19.5365  19.8337  19.8430  20.2439  20.4425  20.4847  20.7327  20.8288
    23.2306  23.9475

          k = 0.1111 0.2222 0.3333 (  7424 PWs)   bands (ev):

   -67.3440 -67.3160 -67.3081 -66.5344 -34.0656 -33.9525 -33.9041 -33.2732
   -33.2496 -33.2377 -33.1875 -33.1851 -33.1548 -32.6601 -32.6478 -32.6440
     1.2465  10.8575  11.6116  12.2610  13.7623  15.6581  16.1557  16.3305
    16.5273  16.6655  17.4264  17.9408  18.1450  18.6008  18.6610  19.2784
    19.3045  19.7072  19.8065  20.0897  20.3806  20.4336  20.7265  20.8364
    23.1216  23.7700

          k = 0.1111 0.2222 0.4444 (  7433 PWs)   bands (ev):

   -67.3381 -67.3216 -67.3082 -66.5345 -34.0744 -33.9503 -33.8917 -33.2812
   -33.2554 -33.2365 -33.1858 -33.1849 -33.1490 -32.6573 -32.6523 -32.6460
     1.4063  10.3801  11.5687  12.1836  14.2833  15.2978  16.4056  16.5687
    16.6595  16.9778  17.1958  17.6112  18.0539  18.6270  18.8413  19.0778
    19.1794  19.7033  19.8062  19.9542  20.3197  20.3832  20.4883  20.8721
    23.1473  23.7266

          k = 0.1111 0.3333 0.3333 (  7432 PWs)   bands (ev):

   -67.3387 -67.3176 -67.3116 -66.5345 -34.0887 -33.9481 -33.8789 -33.2920
   -33.2523 -33.2489 -33.1845 -33.1827 -33.1377 -32.6590 -32.6490 -32.6439
     1.4750  10.8124  10.8547  12.1297  14.1550  15.9507  16.0735  16.5540
    16.6814  16.8734  17.3270  17.6482  17.9843  18.5075  18.7407  19.0988
    19.3926  19.5429  19.9241  19.9250  20.2620  20.4113  20.8985  20.9781
    22.5963  24.2112

          k = 0.1111 0.3333 0.4444 (  7432 PWs)   bands (ev):

   -67.3331 -67.3215 -67.3130 -66.5346 -34.1010 -33.9458 -33.8646 -33.3021
   -33.2582 -33.2512 -33.1830 -33.1822 -33.1283 -32.6571 -32.6495 -32.6453
     1.6367  10.3568  10.8091  12.0487  14.6045  15.6787  16.2444  16.7774
    16.8629  17.0626  17.1777  17.4112  17.9285  18.4039  18.8157  18.9915
    19.3560  19.5852  19.7345  19.9967  20.1412  20.5095  20.7321  21.0730
    22.3522  24.2449

          k = 0.1111 0.4444 0.4444 (  7433 PWs)   bands (ev):

   -67.3274 -67.3219 -67.3182 -66.5347 -34.1153 -33.9436 -33.8492 -33.3132
   -33.2603 -33.2596 -33.1816 -33.1814 -33.1168 -32.6576 -32.6465 -32.6452
     1.8001  10.3372  10.3388  11.9662  14.9334  15.9998  16.0395  16.8472
    16.9395  17.0016  17.1567  17.6202  17.8811  18.1384  18.6868  19.0346
    19.4391  19.5802  19.6277  19.9202  19.9911  20.7272  20.8654  21.1313
    21.8238  24.5857

          k = 0.2222 0.2222 0.2222 (  7436 PWs)   bands (ev):

   -67.3463 -67.3109 -67.3109 -66.5344 -34.0774 -33.9238 -33.9238 -33.2610
   -33.2610 -33.2583 -33.1744 -33.1744 -33.1595 -32.6621 -32.6425 -32.6425
     1.2052  11.5057  11.6333  11.6333  13.6120  15.9659  15.9659  16.3813
    16.3963  16.3963  17.6136  18.0862  18.0862  18.6338  18.6338  19.2216
    19.2258  19.7412  19.7412  20.3383  20.4372  20.4372  21.0803  21.0803
    23.3975  23.8156

          k = 0.2222 0.2222 0.3333 (  7428 PWs)   bands (ev):

   -67.3409 -67.3162 -67.3109 -66.5345 -34.0994 -33.9215 -33.8972 -33.2781
   -33.2758 -33.2612 -33.1693 -33.1639 -33.1500 -32.6611 -32.6440 -32.6430
     1.4336  10.8144  11.4942  11.5404  14.0013  15.8920  16.3476  16.3804
    16.5661  16.7441  17.4592  17.8195  17.9649  18.6060  18.6853  18.9746
    19.2134  19.6812  19.7896  20.2385  20.3910  20.4171  20.9560  21.2856
    23.3376  23.6140

          k = 0.2222 0.2222 0.4444 (  7437 PWs)   bands (ev):

   -67.3354 -67.3216 -67.3108 -66.5346 -34.1112 -33.9201 -33.8824 -33.2875
   -33.2845 -33.2622 -33.1676 -33.1590 -33.1440 -32.6566 -32.6488 -32.6433
     1.5952  10.3373  11.4093  11.5220  14.4641  15.5471  16.4100  16.6965
    16.7872  17.0775  17.2512  17.4547  17.9244  18.6156  18.7205  18.7987
    19.2519  19.7835  19.8996  20.1211  20.3449  20.3570  20.5392  21.3919
    23.3749  23.4642

          k = 0.2222 0.3333 0.3333 (  7440 PWs)   bands (ev):

   -67.3362 -67.3176 -67.3139 -66.5346 -34.1262 -33.9092 -33.8780 -33.2979
   -33.2824 -33.2785 -33.1584 -33.1566 -33.1368 -32.6585 -32.6431 -32.6421
     1.6651  10.7518  10.7598  11.4198  14.3576  16.1254  16.1728  16.5862
    16.7957  16.9208  17.4228  17.6828  17.8431  18.5149  18.6477  18.7611
    19.3527  19.6423  19.8906  20.1763  20.3804  20.3975  21.0670  21.4862
    22.7515  23.7080

          k = 0.2222 0.3333 0.4444 (  7431 PWs)   bands (ev):

   -67.3313 -67.3215 -67.3148 -66.5346 -34.1407 -33.9063 -33.8634 -33.3091
   -33.2911 -33.2829 -33.1561 -33.1518 -33.1278 -32.6539 -32.6449 -32.6418
     1.8294  10.2853  10.7138  11.3580  14.7234  15.8570  16.2689  16.8386
    17.0108  17.0611  17.3089  17.5573  17.8459  18.4192  18.5337  18.7263
    19.4680  19.7474  19.9626  20.0612  20.3213  20.4544  20.7322  21.6896
    22.3544  23.6882

          k = 0.2222 0.4444 0.4444 (  7437 PWs)   bands (ev):

   -67.3265 -67.3219 -67.3190 -66.5347 -34.1567 -33.9023 -33.8491 -33.3211
   -33.2948 -33.2941 -33.1506 -33.1504 -33.1167 -32.6510 -32.6425 -32.6420
     1.9960  10.2479  10.2520  11.2850  14.9447  16.0839  16.1702  16.6781
    17.2035  17.2401  17.3386  17.7454  17.8433  18.1951  18.3674  18.7278
    19.6942  19.7351  19.8892  19.9599  20.2302  20.6465  20.8150  21.6138
    21.8565  23.8904

          k = 0.3333 0.3333 0.3333 (  7424 PWs)   bands (ev):

   -67.3325 -67.3175 -67.3175 -66.5346 -34.1568 -33.8770 -33.8770 -33.3056
   -33.3056 -33.2998 -33.1403 -33.1403 -33.1332 -32.6541 -32.6401 -32.6401
     1.9012  10.6410  10.6410  10.7351  14.6294  16.0842  16.4468  16.4468
    17.0959  17.0959  17.5104  17.7473  17.7473  18.4506  18.5258  18.5258
    19.5066  19.8517  19.8517  20.2897  20.3763  20.3763  21.3677  21.3677
    22.9691  22.9691

          k = 0.3333 0.3333 0.4444 (  7434 PWs)   bands (ev):

   -67.3285 -67.3215 -67.3175 -66.5346 -34.1735 -33.8763 -33.8592 -33.3183
   -33.3144 -33.3074 -33.1376 -33.1312 -33.1255 -32.6486 -32.6407 -32.6387
     2.0694  10.2050  10.5719  10.6655  14.8545  16.0355  16.2878  16.6330
    17.3157  17.3328  17.5111  17.7317  17.8243  18.2899  18.4216  18.5175
    19.6669  19.9044  20.0204  20.2101  20.3908  20.4084  20.7762  21.7177
    22.3423  23.1532

          k = 0.3333 0.4444 0.4444 (  7434 PWs)   bands (ev):

   -67.3252 -67.3218 -67.3203 -66.5346 -34.1915 -33.8678 -33.8489 -33.3298
   -33.3213 -33.3205 -33.1284 -33.1280 -33.1165 -32.6434 -32.6383 -32.6381
     2.2409  10.1490  10.1586  10.5577  14.9335  16.1689  16.2825  16.4798
    17.5928  17.5997  17.6674  17.8603  17.8666  18.1335  18.3004  18.4928
    19.8640  19.9514  20.0419  20.1416  20.4200  20.4855  20.7230  21.2315
    22.3663  23.1197

          k = 0.4444 0.4444 0.4444 (  7457 PWs)   bands (ev):

   -67.3236 -67.3218 -67.3218 -66.5346 -34.2106 -33.8488 -33.8488 -33.3356
   -33.3356 -33.3345 -33.1169 -33.1169 -33.1160 -32.6379 -32.6359 -32.6359
     2.4167  10.0868  10.0868  10.1094  14.9154  16.2389  16.3302  16.3302
    17.8950  17.8950  17.9812  17.9812  17.9856  18.0024  18.3667  18.3667
    20.0133  20.0712  20.0712  20.2605  20.3448  20.3448  20.7353  20.7353
    22.6689  22.6689

     the Fermi energy is    18.7322 ev

!    total energy              =   -1345.16898234 Ry
     Harris-Foulkes estimate   =   -1345.16898234 Ry
     estimated scf accuracy    <          7.3E-09 Ry

     total all-electron energy =    -10291.770618 Ry

     The total energy is the sum of the following terms:

     one-electron contribution =    -446.73550795 Ry
     hartree contribution      =     269.20248942 Ry
     xc contribution           =    -117.08808785 Ry
     ewald contribution        =    -711.61403732 Ry
     one-center paw contrib.   =    -338.93392859 Ry
     smearing contrib. (-TS)   =       0.00008995 Ry

     total magnetization       =     7.68 Bohr mag/cell
     absolute magnetization    =     8.03 Bohr mag/cell

     convergence has been achieved in  26 iterations

     Forces acting on atoms (Ry/au):


     negative rho (up, down):  0.000E+00 2.400E-04
     atom    1 type  1   force =     0.00000000    0.00000000    0.00000000
     atom    2 type  1   force =     0.00000000    0.00000000    0.00000000
     atom    3 type  1   force =     0.00000000    0.00000000    0.00000000
     atom    4 type  1   force =     0.00000000    0.00000000    0.00000000
     atom    5 type  2   force =     0.00000000    0.00000000    0.00000000

     Total force =     0.000000     Total SCF correction =     0.000000


     entering subroutine stress ...


     negative rho (up, down):  0.000E+00 2.400E-04
          total   stress  (Ry/bohr**3)                   (kbar)     P=  146.01
   0.00099254   0.00000000   0.00000000        146.01      0.00      0.00
   0.00000000   0.00099254   0.00000000          0.00    146.01      0.00
   0.00000000   0.00000000   0.00099254          0.00      0.00    146.01


     Writing output data file config.save
 
     init_run     :      4.17s CPU      4.34s WALL (       1 calls)
     electrons    :    275.49s CPU    281.48s WALL (       1 calls)
     forces       :      1.04s CPU      1.09s WALL (       1 calls)
     stress       :      2.95s CPU      3.06s WALL (       1 calls)

     Called by init_run:
     wfcinit      :      2.99s CPU      3.08s WALL (       1 calls)
     potinit      :      0.47s CPU      0.49s WALL (       1 calls)

     Called by electrons:
     c_bands      :    218.92s CPU    222.62s WALL (      26 calls)
     sum_band     :     42.03s CPU     43.28s WALL (      26 calls)
     v_of_rho     :      1.46s CPU      1.53s WALL (      27 calls)
     newd         :      2.32s CPU      2.79s WALL (      27 calls)
     mix_rho      :      0.46s CPU      0.47s WALL (      26 calls)

     Called by c_bands:
     init_us_2    :      4.17s CPU      4.25s WALL (    3850 calls)
     cegterg      :    203.63s CPU    207.06s WALL (    1820 calls)

     Called by sum_band:
     sum_band:bec :      0.06s CPU      0.07s WALL (    1820 calls)
     addusdens    :      5.56s CPU      6.16s WALL (      26 calls)

     Called by *egterg:
     h_psi        :    140.34s CPU    143.10s WALL (    6289 calls)
     s_psi        :      6.03s CPU      6.12s WALL (    6289 calls)
     g_psi        :      1.22s CPU      1.23s WALL (    4399 calls)
     cdiaghg      :     18.57s CPU     18.74s WALL (    6219 calls)

     Called by h_psi:
     add_vuspsi   :      5.83s CPU      5.97s WALL (    6289 calls)

     General routines
     calbec       :     10.88s CPU     11.14s WALL (    8459 calls)
     fft          :      0.87s CPU      0.90s WALL (     871 calls)
     ffts         :      0.06s CPU      0.06s WALL (     106 calls)
     fftw         :    127.54s CPU    129.91s WALL (  438354 calls)
     interpolate  :      0.20s CPU      0.20s WALL (     106 calls)
     davcio       :      0.08s CPU      0.36s WALL (      70 calls)
 
     Parallel routines
     fft_scatter  :     46.56s CPU     47.63s WALL (  439331 calls)

     PAW routines
     PAW_pot      :     10.58s CPU     11.04s WALL (      27 calls)
     PAW_symme    :      0.04s CPU      0.04s WALL (      53 calls)
 
     PWSCF        :  4m44.27s CPU     4m51.03s WALL

 
   This run was terminated on:  23: 8: 8  26Oct2020            

=------------------------------------------------------------------------------=
   JOB DONE.
=------------------------------------------------------------------------------=
