
     Program PWSCF v.5.2.0 starts on 26Oct2020 at 23:11:40 

     This program is part of the open-source Quantum ESPRESSO suite
     for quantum simulation of materials; please cite
         "P. Giannozzi et al., J. Phys.:Condens. Matter 21 395502 (2009);
          URL http://www.quantum-espresso.org", 
     in publications or presentations arising from this work. More details at
     http://www.quantum-espresso.org/quote

     Parallel version (MPI), running on     6 processors
     R & G space division:  proc/nbgrp/npool/nimage =       6
     Reading input from 8.in

     Current dimensions of program PWSCF are:
     Max number of different atomic species (ntypx) = 10
     Max number of k-points (npk) =  40000
     Max angular momentum in pseudopotentials (lmaxx) =  3

     IMPORTANT: XC functional enforced from input :
     Exchange-correlation      = PBE ( 1  4  3  4 0 0)
     Any further DFT definition will be discarded
     Please, verify this is what you really want

               file Fe_PSEUDO: wavefunction(s)  3P 3D renormalized
               file N_PSEUDO: wavefunction(s)  2S renormalized

     Subspace diagonalization in iterative solution of the eigenvalue problem:
     a serial algorithm will be used

 
     Parallelization info
     --------------------
     sticks:   dense  smooth     PW     G-vecs:    dense   smooth      PW
     Min         496     333     92                20510    11166    1656
     Max         497     334     94                20511    11179    1659
     Sum        2981    2001    561               123065    67043    9939
 
     Generating pointlists ...
     new r_m :   0.2063 (alat units)  1.4318 (a.u.) for type    1
     new r_m :   0.2063 (alat units)  1.4318 (a.u.) for type    2


     bravais-lattice index     =            0
     lattice parameter (alat)  =       6.9422  a.u.
     unit-cell volume          =     334.5777 (a.u.)^3
     number of atoms/cell      =            5
     number of atomic types    =            2
     number of electrons       =        69.00
     number of Kohn-Sham states=           42
     kinetic-energy cutoff     =     130.0000  Ry
     charge density cutoff     =     780.0000  Ry
     convergence threshold     =      1.0E-08
     mixing beta               =       0.7000
     number of iterations used =            8  plain     mixing
     Exchange-correlation      = PBE ( 1  4  3  4 0 0)

     celldm(1)=   6.942230  celldm(2)=   0.000000  celldm(3)=   0.000000
     celldm(4)=   0.000000  celldm(5)=   0.000000  celldm(6)=   0.000000

     crystal axes: (cart. coord. in units of alat)
               a(1) = (   1.000000   0.000000   0.000000 )  
               a(2) = (   0.000000   1.000000   0.000000 )  
               a(3) = (   0.000000   0.000000   1.000000 )  

     reciprocal axes: (cart. coord. in units 2 pi/alat)
               b(1) = (  1.000000  0.000000  0.000000 )  
               b(2) = (  0.000000  1.000000  0.000000 )  
               b(3) = (  0.000000  0.000000  1.000000 )  


     PseudoPot. # 1 for Fe read from file:
     pseudo/Fe_PSEUDO
     MD5 check sum: e30d5f36a6f0cb983ee41abee56170da
     Pseudo is Projector augmented-wave + core cor, Zval = 16.0
     Generated using "atomic" code by A. Dal Corso  v.6.3
     Shape of augmentation charge: PSQ
     Using radial grid of 1191 points,  6 beta functions with: 
                l(1) =   0
                l(2) =   0
                l(3) =   1
                l(4) =   1
                l(5) =   2
                l(6) =   2
     Q(r) pseudized with 0 coefficients 


     PseudoPot. # 2 for  N read from file:
     pseudo/N_PSEUDO
     MD5 check sum: 14c48229446f9f2d411169a3abcbc3fa
     Pseudo is Projector augmented-wave + core cor, Zval =  5.0
     Generated using "atomic" code by A. Dal Corso  v.6.3
     Shape of augmentation charge: PSQ
     Using radial grid of 1085 points,  4 beta functions with: 
                l(1) =   0
                l(2) =   0
                l(3) =   1
                l(4) =   1
     Q(r) pseudized with 0 coefficients 


     atomic species   valence    mass     pseudopotential
        Fe            16.00    55.84500     Fe( 1.00)
        N              5.00    14.00650      N( 1.00)

     Starting magnetic structure 
     atomic species   magnetization
        Fe           0.500
        N           -0.010

     48 Sym. Ops., with inversion, found



   Cartesian axes

     site n.     atom                  positions (alat units)
         1           Fe  tau(   1) = (   0.0000000   0.5000000   0.5000000  )
         2           Fe  tau(   2) = (   0.5000000   0.5000000   0.0000000  )
         3           Fe  tau(   3) = (   0.5000000   0.0000000   0.5000000  )
         4           Fe  tau(   4) = (   0.0000000   0.0000000   0.0000000  )
         5           N   tau(   5) = (   0.5000000   0.5000000   0.5000000  )

     number of k points=    70  Marzari-Vanderbilt smearing, width (Ry)=  0.0050
                       cart. coord. in units 2pi/alat
        k(    1) = (   0.0000000   0.0000000   0.0000000), wk =   0.0013717
        k(    2) = (   0.0000000   0.0000000   0.1111111), wk =   0.0082305
        k(    3) = (   0.0000000   0.0000000   0.2222222), wk =   0.0082305
        k(    4) = (   0.0000000   0.0000000   0.3333333), wk =   0.0082305
        k(    5) = (   0.0000000   0.0000000   0.4444444), wk =   0.0082305
        k(    6) = (   0.0000000   0.1111111   0.1111111), wk =   0.0164609
        k(    7) = (   0.0000000   0.1111111   0.2222222), wk =   0.0329218
        k(    8) = (   0.0000000   0.1111111   0.3333333), wk =   0.0329218
        k(    9) = (   0.0000000   0.1111111   0.4444444), wk =   0.0329218
        k(   10) = (   0.0000000   0.2222222   0.2222222), wk =   0.0164609
        k(   11) = (   0.0000000   0.2222222   0.3333333), wk =   0.0329218
        k(   12) = (   0.0000000   0.2222222   0.4444444), wk =   0.0329218
        k(   13) = (   0.0000000   0.3333333   0.3333333), wk =   0.0164609
        k(   14) = (   0.0000000   0.3333333   0.4444444), wk =   0.0329218
        k(   15) = (   0.0000000   0.4444444   0.4444444), wk =   0.0164609
        k(   16) = (   0.1111111   0.1111111   0.1111111), wk =   0.0109739
        k(   17) = (   0.1111111   0.1111111   0.2222222), wk =   0.0329218
        k(   18) = (   0.1111111   0.1111111   0.3333333), wk =   0.0329218
        k(   19) = (   0.1111111   0.1111111   0.4444444), wk =   0.0329218
        k(   20) = (   0.1111111   0.2222222   0.2222222), wk =   0.0329218
        k(   21) = (   0.1111111   0.2222222   0.3333333), wk =   0.0658436
        k(   22) = (   0.1111111   0.2222222   0.4444444), wk =   0.0658436
        k(   23) = (   0.1111111   0.3333333   0.3333333), wk =   0.0329218
        k(   24) = (   0.1111111   0.3333333   0.4444444), wk =   0.0658436
        k(   25) = (   0.1111111   0.4444444   0.4444444), wk =   0.0329218
        k(   26) = (   0.2222222   0.2222222   0.2222222), wk =   0.0109739
        k(   27) = (   0.2222222   0.2222222   0.3333333), wk =   0.0329218
        k(   28) = (   0.2222222   0.2222222   0.4444444), wk =   0.0329218
        k(   29) = (   0.2222222   0.3333333   0.3333333), wk =   0.0329218
        k(   30) = (   0.2222222   0.3333333   0.4444444), wk =   0.0658436
        k(   31) = (   0.2222222   0.4444444   0.4444444), wk =   0.0329218
        k(   32) = (   0.3333333   0.3333333   0.3333333), wk =   0.0109739
        k(   33) = (   0.3333333   0.3333333   0.4444444), wk =   0.0329218
        k(   34) = (   0.3333333   0.4444444   0.4444444), wk =   0.0329218
        k(   35) = (   0.4444444   0.4444444   0.4444444), wk =   0.0109739
        k(   36) = (   0.0000000   0.0000000   0.0000000), wk =   0.0013717
        k(   37) = (   0.0000000   0.0000000   0.1111111), wk =   0.0082305
        k(   38) = (   0.0000000   0.0000000   0.2222222), wk =   0.0082305
        k(   39) = (   0.0000000   0.0000000   0.3333333), wk =   0.0082305
        k(   40) = (   0.0000000   0.0000000   0.4444444), wk =   0.0082305
        k(   41) = (   0.0000000   0.1111111   0.1111111), wk =   0.0164609
        k(   42) = (   0.0000000   0.1111111   0.2222222), wk =   0.0329218
        k(   43) = (   0.0000000   0.1111111   0.3333333), wk =   0.0329218
        k(   44) = (   0.0000000   0.1111111   0.4444444), wk =   0.0329218
        k(   45) = (   0.0000000   0.2222222   0.2222222), wk =   0.0164609
        k(   46) = (   0.0000000   0.2222222   0.3333333), wk =   0.0329218
        k(   47) = (   0.0000000   0.2222222   0.4444444), wk =   0.0329218
        k(   48) = (   0.0000000   0.3333333   0.3333333), wk =   0.0164609
        k(   49) = (   0.0000000   0.3333333   0.4444444), wk =   0.0329218
        k(   50) = (   0.0000000   0.4444444   0.4444444), wk =   0.0164609
        k(   51) = (   0.1111111   0.1111111   0.1111111), wk =   0.0109739
        k(   52) = (   0.1111111   0.1111111   0.2222222), wk =   0.0329218
        k(   53) = (   0.1111111   0.1111111   0.3333333), wk =   0.0329218
        k(   54) = (   0.1111111   0.1111111   0.4444444), wk =   0.0329218
        k(   55) = (   0.1111111   0.2222222   0.2222222), wk =   0.0329218
        k(   56) = (   0.1111111   0.2222222   0.3333333), wk =   0.0658436
        k(   57) = (   0.1111111   0.2222222   0.4444444), wk =   0.0658436
        k(   58) = (   0.1111111   0.3333333   0.3333333), wk =   0.0329218
        k(   59) = (   0.1111111   0.3333333   0.4444444), wk =   0.0658436
        k(   60) = (   0.1111111   0.4444444   0.4444444), wk =   0.0329218
        k(   61) = (   0.2222222   0.2222222   0.2222222), wk =   0.0109739
        k(   62) = (   0.2222222   0.2222222   0.3333333), wk =   0.0329218
        k(   63) = (   0.2222222   0.2222222   0.4444444), wk =   0.0329218
        k(   64) = (   0.2222222   0.3333333   0.3333333), wk =   0.0329218
        k(   65) = (   0.2222222   0.3333333   0.4444444), wk =   0.0658436
        k(   66) = (   0.2222222   0.4444444   0.4444444), wk =   0.0329218
        k(   67) = (   0.3333333   0.3333333   0.3333333), wk =   0.0109739
        k(   68) = (   0.3333333   0.3333333   0.4444444), wk =   0.0329218
        k(   69) = (   0.3333333   0.4444444   0.4444444), wk =   0.0329218
        k(   70) = (   0.4444444   0.4444444   0.4444444), wk =   0.0109739

     Dense  grid:   123065 G-vectors     FFT dimensions: (  64,  64,  64)

     Smooth grid:    67043 G-vectors     FFT dimensions: (  54,  54,  54)

     Largest allocated arrays     est. size (Mb)     dimensions
        Kohn-Sham Wavefunctions         0.91 Mb     (    1417,   42)
        NL pseudopotentials             1.73 Mb     (    1417,   80)
        Each V/rho on FFT grid          1.38 Mb     (   45056,   2)
        Each G-vector array             0.16 Mb     (   20511)
        G-vector shells                 0.01 Mb     (     787)
     Largest temporary arrays     est. size (Mb)     dimensions
        Auxiliary wavefunctions         3.63 Mb     (    1417,  168)
        Each subspace H/S matrix        0.43 Mb     (     168,  168)
        Each <psi_i|beta_j> matrix      0.05 Mb     (      80,   42)
        Arrays for rho mixing           5.50 Mb     (   45056,    8)

     Check: negative/imaginary core charge=   -0.000001    0.000000

     Initial potential from superposition of free atoms

     starting charge   68.99837, renormalised to   69.00000
     Starting wfc are   44 randomized atomic wfcs
     Checking if some PAW data can be deallocated... 

     total cpu time spent up to now is        5.7 secs

     per-process dynamical memory:   106.4 Mb

     Self-consistent Calculation

     iteration #  1     ecut=   130.00 Ry     beta=0.70
     Davidson diagonalization with overlap
     ethr =  1.00E-02,  avg # of iterations =  3.1

     negative rho (up, down):  0.000E+00 4.841E-04
 
     Magnetic moment per site:
     atom:    1    charge:   12.7334    magn:    4.0976    constr:    0.0000
     atom:    2    charge:   12.7334    magn:    4.0976    constr:    0.0000
     atom:    3    charge:   12.7334    magn:    4.0976    constr:    0.0000
     atom:    4    charge:   12.6138    magn:    4.1670    constr:    0.0000
     atom:    5    charge:    4.6359    magn:    0.1182    constr:    0.0000

     total cpu time spent up to now is       19.7 secs

     total energy              =   -1344.14419500 Ry
     Harris-Foulkes estimate   =   -1343.44580039 Ry
     estimated scf accuracy    <       2.86630234 Ry

     total magnetization       =    13.87 Bohr mag/cell
     absolute magnetization    =    14.05 Bohr mag/cell

     iteration #  2     ecut=   130.00 Ry     beta=0.70
     Davidson diagonalization with overlap
     ethr =  4.15E-03,  avg # of iterations =  3.3

     negative rho (up, down):  0.000E+00 4.166E-04
 
     Magnetic moment per site:
     atom:    1    charge:   12.7244    magn:    3.8167    constr:    0.0000
     atom:    2    charge:   12.7244    magn:    3.8167    constr:    0.0000
     atom:    3    charge:   12.7244    magn:    3.8167    constr:    0.0000
     atom:    4    charge:   13.0650    magn:    3.5705    constr:    0.0000
     atom:    5    charge:    4.2262    magn:    0.0569    constr:    0.0000

     total cpu time spent up to now is       33.0 secs

     total energy              =   -1343.30092597 Ry
     Harris-Foulkes estimate   =   -1345.74834116 Ry
     estimated scf accuracy    <       8.51086068 Ry

     total magnetization       =     9.38 Bohr mag/cell
     absolute magnetization    =    10.50 Bohr mag/cell

     iteration #  3     ecut=   130.00 Ry     beta=0.70
     Davidson diagonalization with overlap
     ethr =  4.15E-03,  avg # of iterations =  3.5

     negative rho (up, down):  0.000E+00 3.168E-04
 
     Magnetic moment per site:
     atom:    1    charge:   12.8851    magn:    3.4478    constr:    0.0000
     atom:    2    charge:   12.8851    magn:    3.4478    constr:    0.0000
     atom:    3    charge:   12.8851    magn:    3.4478    constr:    0.0000
     atom:    4    charge:   12.8122    magn:    3.0181    constr:    0.0000
     atom:    5    charge:    4.0302    magn:    0.0240    constr:    0.0000

     total cpu time spent up to now is       46.5 secs

     total energy              =   -1343.62167293 Ry
     Harris-Foulkes estimate   =   -1346.18884513 Ry
     estimated scf accuracy    <      25.53013747 Ry

     total magnetization       =     3.80 Bohr mag/cell
     absolute magnetization    =     4.50 Bohr mag/cell

     iteration #  4     ecut=   130.00 Ry     beta=0.70
     Davidson diagonalization with overlap
     ethr =  4.15E-03,  avg # of iterations =  3.2

     negative rho (up, down):  0.000E+00 5.957E-04
 
     Magnetic moment per site:
     atom:    1    charge:   12.7745    magn:    2.2620    constr:    0.0000
     atom:    2    charge:   12.7745    magn:    2.2620    constr:    0.0000
     atom:    3    charge:   12.7745    magn:    2.2620    constr:    0.0000
     atom:    4    charge:   12.7286    magn:    1.8783    constr:    0.0000
     atom:    5    charge:    4.0535    magn:   -0.0487    constr:    0.0000

     total cpu time spent up to now is       60.3 secs

     total energy              =   -1345.02875562 Ry
     Harris-Foulkes estimate   =   -1345.10670841 Ry
     estimated scf accuracy    <       0.54875767 Ry

     total magnetization       =    10.75 Bohr mag/cell
     absolute magnetization    =    11.16 Bohr mag/cell

     iteration #  5     ecut=   130.00 Ry     beta=0.70
     Davidson diagonalization with overlap
     ethr =  7.95E-04,  avg # of iterations =  3.3

     negative rho (up, down):  0.000E+00 5.127E-04
 
     Magnetic moment per site:
     atom:    1    charge:   12.8333    magn:    2.1625    constr:    0.0000
     atom:    2    charge:   12.8333    magn:    2.1625    constr:    0.0000
     atom:    3    charge:   12.8333    magn:    2.1625    constr:    0.0000
     atom:    4    charge:   12.8041    magn:    2.0417    constr:    0.0000
     atom:    5    charge:    4.1103    magn:   -0.0268    constr:    0.0000

     total cpu time spent up to now is       74.5 secs

     total energy              =   -1345.11429077 Ry
     Harris-Foulkes estimate   =   -1345.20153549 Ry
     estimated scf accuracy    <       0.24102577 Ry

     total magnetization       =     9.59 Bohr mag/cell
     absolute magnetization    =     9.95 Bohr mag/cell

     iteration #  6     ecut=   130.00 Ry     beta=0.70
     Davidson diagonalization with overlap
     ethr =  3.49E-04,  avg # of iterations =  3.0

     negative rho (up, down):  0.000E+00 4.641E-04
 
     Magnetic moment per site:
     atom:    1    charge:   12.8272    magn:    2.1147    constr:    0.0000
     atom:    2    charge:   12.8272    magn:    2.1147    constr:    0.0000
     atom:    3    charge:   12.8272    magn:    2.1147    constr:    0.0000
     atom:    4    charge:   12.7931    magn:    2.3693    constr:    0.0000
     atom:    5    charge:    4.1122    magn:    0.0064    constr:    0.0000

     total cpu time spent up to now is       87.1 secs

     total energy              =   -1345.16105403 Ry
     Harris-Foulkes estimate   =   -1345.15681454 Ry
     estimated scf accuracy    <       0.02600595 Ry

     total magnetization       =     9.38 Bohr mag/cell
     absolute magnetization    =     9.72 Bohr mag/cell

     iteration #  7     ecut=   130.00 Ry     beta=0.70
     Davidson diagonalization with overlap
     ethr =  3.77E-05,  avg # of iterations =  1.7

     negative rho (up, down):  0.000E+00 4.135E-04
 
     Magnetic moment per site:
     atom:    1    charge:   12.8278    magn:    1.9570    constr:    0.0000
     atom:    2    charge:   12.8278    magn:    1.9570    constr:    0.0000
     atom:    3    charge:   12.8278    magn:    1.9570    constr:    0.0000
     atom:    4    charge:   12.7727    magn:    2.8105    constr:    0.0000
     atom:    5    charge:    4.1115    magn:    0.0392    constr:    0.0000

     total cpu time spent up to now is       98.8 secs

     total energy              =   -1345.16093036 Ry
     Harris-Foulkes estimate   =   -1345.16281491 Ry
     estimated scf accuracy    <       0.01805366 Ry

     total magnetization       =     9.38 Bohr mag/cell
     absolute magnetization    =     9.71 Bohr mag/cell

     iteration #  8     ecut=   130.00 Ry     beta=0.70
     Davidson diagonalization with overlap
     ethr =  2.62E-05,  avg # of iterations =  2.2

     negative rho (up, down):  0.000E+00 3.962E-04
 
     Magnetic moment per site:
     atom:    1    charge:   12.8310    magn:    1.8622    constr:    0.0000
     atom:    2    charge:   12.8310    magn:    1.8622    constr:    0.0000
     atom:    3    charge:   12.8310    magn:    1.8622    constr:    0.0000
     atom:    4    charge:   12.7752    magn:    2.7251    constr:    0.0000
     atom:    5    charge:    4.1094    magn:    0.0310    constr:    0.0000

     total cpu time spent up to now is      111.2 secs

     total energy              =   -1345.16596363 Ry
     Harris-Foulkes estimate   =   -1345.16498753 Ry
     estimated scf accuracy    <       0.00209199 Ry

     total magnetization       =     9.00 Bohr mag/cell
     absolute magnetization    =     9.35 Bohr mag/cell

     iteration #  9     ecut=   130.00 Ry     beta=0.70
     Davidson diagonalization with overlap
     ethr =  3.03E-06,  avg # of iterations =  2.1

     negative rho (up, down):  0.000E+00 4.500E-04
 
     Magnetic moment per site:
     atom:    1    charge:   12.8288    magn:    1.9948    constr:    0.0000
     atom:    2    charge:   12.8288    magn:    1.9948    constr:    0.0000
     atom:    3    charge:   12.8288    magn:    1.9948    constr:    0.0000
     atom:    4    charge:   12.7742    magn:    2.7578    constr:    0.0000
     atom:    5    charge:    4.1142    magn:    0.0387    constr:    0.0000

     total cpu time spent up to now is      122.3 secs

     total energy              =   -1345.16341372 Ry
     Harris-Foulkes estimate   =   -1345.16678653 Ry
     estimated scf accuracy    <       0.00202522 Ry

     total magnetization       =     8.59 Bohr mag/cell
     absolute magnetization    =     8.97 Bohr mag/cell

     iteration # 10     ecut=   130.00 Ry     beta=0.70
     Davidson diagonalization with overlap
     ethr =  2.94E-06,  avg # of iterations =  1.9

     negative rho (up, down):  0.000E+00 4.904E-04
 
     Magnetic moment per site:
     atom:    1    charge:   12.8274    magn:    2.0793    constr:    0.0000
     atom:    2    charge:   12.8274    magn:    2.0793    constr:    0.0000
     atom:    3    charge:   12.8274    magn:    2.0793    constr:    0.0000
     atom:    4    charge:   12.7752    magn:    2.7411    constr:    0.0000
     atom:    5    charge:    4.1176    magn:    0.0453    constr:    0.0000

     total cpu time spent up to now is      134.6 secs

     total energy              =   -1345.16318901 Ry
     Harris-Foulkes estimate   =   -1345.16485392 Ry
     estimated scf accuracy    <       0.00219775 Ry

     total magnetization       =     9.10 Bohr mag/cell
     absolute magnetization    =     9.44 Bohr mag/cell

     iteration # 11     ecut=   130.00 Ry     beta=0.70
     Davidson diagonalization with overlap
     ethr =  2.94E-06,  avg # of iterations =  1.7

     negative rho (up, down):  0.000E+00 3.205E-04
 
     Magnetic moment per site:
     atom:    1    charge:   12.8341    magn:    1.7220    constr:    0.0000
     atom:    2    charge:   12.8341    magn:    1.7220    constr:    0.0000
     atom:    3    charge:   12.8341    magn:    1.7220    constr:    0.0000
     atom:    4    charge:   12.7751    magn:    2.6962    constr:    0.0000
     atom:    5    charge:    4.1045    magn:    0.0140    constr:    0.0000

     total cpu time spent up to now is      146.3 secs

     total energy              =   -1345.15967953 Ry
     Harris-Foulkes estimate   =   -1345.16368645 Ry
     estimated scf accuracy    <       0.00284255 Ry

     total magnetization       =     9.33 Bohr mag/cell
     absolute magnetization    =     9.67 Bohr mag/cell

     iteration # 12     ecut=   130.00 Ry     beta=0.70
     Davidson diagonalization with overlap
     ethr =  2.94E-06,  avg # of iterations =  3.1

     negative rho (up, down):  0.000E+00 1.643E-04
 
     Magnetic moment per site:
     atom:    1    charge:   12.8414    magn:    1.3170    constr:    0.0000
     atom:    2    charge:   12.8414    magn:    1.3170    constr:    0.0000
     atom:    3    charge:   12.8414    magn:    1.3170    constr:    0.0000
     atom:    4    charge:   12.7744    magn:    2.6497    constr:    0.0000
     atom:    5    charge:    4.0884    magn:   -0.0227    constr:    0.0000

     total cpu time spent up to now is      160.9 secs

     total energy              =   -1345.16038164 Ry
     Harris-Foulkes estimate   =   -1345.16895175 Ry
     estimated scf accuracy    <       0.00120510 Ry

     total magnetization       =     8.19 Bohr mag/cell
     absolute magnetization    =     8.58 Bohr mag/cell

     iteration # 13     ecut=   130.00 Ry     beta=0.70
     Davidson diagonalization with overlap
     ethr =  1.75E-06,  avg # of iterations =  3.4

     negative rho (up, down):  0.000E+00 1.631E-04
 
     Magnetic moment per site:
     atom:    1    charge:   12.8436    magn:    1.2153    constr:    0.0000
     atom:    2    charge:   12.8436    magn:    1.2153    constr:    0.0000
     atom:    3    charge:   12.8436    magn:    1.2153    constr:    0.0000
     atom:    4    charge:   12.7743    magn:    2.6455    constr:    0.0000
     atom:    5    charge:    4.0841    magn:   -0.0328    constr:    0.0000

     total cpu time spent up to now is      178.4 secs

     total energy              =   -1345.16820513 Ry
     Harris-Foulkes estimate   =   -1345.16959471 Ry
     estimated scf accuracy    <       0.00058328 Ry

     total magnetization       =     7.23 Bohr mag/cell
     absolute magnetization    =     7.60 Bohr mag/cell

     iteration # 14     ecut=   130.00 Ry     beta=0.70
     Davidson diagonalization with overlap
     ethr =  8.45E-07,  avg # of iterations =  2.6

     negative rho (up, down):  0.000E+00 1.645E-04
 
     Magnetic moment per site:
     atom:    1    charge:   12.8425    magn:    1.2904    constr:    0.0000
     atom:    2    charge:   12.8425    magn:    1.2904    constr:    0.0000
     atom:    3    charge:   12.8425    magn:    1.2904    constr:    0.0000
     atom:    4    charge:   12.7744    magn:    2.6534    constr:    0.0000
     atom:    5    charge:    4.0860    magn:   -0.0274    constr:    0.0000

     total cpu time spent up to now is      191.5 secs

     total energy              =   -1345.16912082 Ry
     Harris-Foulkes estimate   =   -1345.16884442 Ry
     estimated scf accuracy    <       0.00127525 Ry

     total magnetization       =     6.98 Bohr mag/cell
     absolute magnetization    =     7.35 Bohr mag/cell

     iteration # 15     ecut=   130.00 Ry     beta=0.70
     Davidson diagonalization with overlap
     ethr =  8.45E-07,  avg # of iterations =  2.1

     negative rho (up, down):  0.000E+00 1.650E-04
 
     Magnetic moment per site:
     atom:    1    charge:   12.8429    magn:    1.2892    constr:    0.0000
     atom:    2    charge:   12.8429    magn:    1.2892    constr:    0.0000
     atom:    3    charge:   12.8429    magn:    1.2892    constr:    0.0000
     atom:    4    charge:   12.7749    magn:    2.6622    constr:    0.0000
     atom:    5    charge:    4.0851    magn:   -0.0318    constr:    0.0000

     total cpu time spent up to now is      204.2 secs

     total energy              =   -1345.16955740 Ry
     Harris-Foulkes estimate   =   -1345.16947935 Ry
     estimated scf accuracy    <       0.00075395 Ry

     total magnetization       =     7.17 Bohr mag/cell
     absolute magnetization    =     7.54 Bohr mag/cell

     iteration # 16     ecut=   130.00 Ry     beta=0.70
     Davidson diagonalization with overlap
     ethr =  8.45E-07,  avg # of iterations =  1.0

     negative rho (up, down):  0.000E+00 2.037E-04
 
     Magnetic moment per site:
     atom:    1    charge:   12.8388    magn:    1.4950    constr:    0.0000
     atom:    2    charge:   12.8388    magn:    1.4950    constr:    0.0000
     atom:    3    charge:   12.8388    magn:    1.4950    constr:    0.0000
     atom:    4    charge:   12.7744    magn:    2.6885    constr:    0.0000
     atom:    5    charge:    4.0908    magn:   -0.0194    constr:    0.0000

     total cpu time spent up to now is      214.8 secs

     total energy              =   -1345.16726418 Ry
     Harris-Foulkes estimate   =   -1345.16957141 Ry
     estimated scf accuracy    <       0.00075787 Ry

     total magnetization       =     7.18 Bohr mag/cell
     absolute magnetization    =     7.54 Bohr mag/cell

     iteration # 17     ecut=   130.00 Ry     beta=0.70
     Davidson diagonalization with overlap
     ethr =  8.45E-07,  avg # of iterations =  3.1

     negative rho (up, down):  0.000E+00 2.069E-04
 
     Magnetic moment per site:
     atom:    1    charge:   12.8386    magn:    1.5022    constr:    0.0000
     atom:    2    charge:   12.8386    magn:    1.5022    constr:    0.0000
     atom:    3    charge:   12.8386    magn:    1.5022    constr:    0.0000
     atom:    4    charge:   12.7744    magn:    2.6856    constr:    0.0000
     atom:    5    charge:    4.0914    magn:   -0.0177    constr:    0.0000

     total cpu time spent up to now is      230.9 secs

     total energy              =   -1345.17001645 Ry
     Harris-Foulkes estimate   =   -1345.17002719 Ry
     estimated scf accuracy    <       0.00085066 Ry

     total magnetization       =     7.73 Bohr mag/cell
     absolute magnetization    =     8.07 Bohr mag/cell

     iteration # 18     ecut=   130.00 Ry     beta=0.70
     Davidson diagonalization with overlap
     ethr =  8.45E-07,  avg # of iterations =  1.0

     negative rho (up, down):  0.000E+00 2.259E-04
 
     Magnetic moment per site:
     atom:    1    charge:   12.8364    magn:    1.5483    constr:    0.0000
     atom:    2    charge:   12.8364    magn:    1.5483    constr:    0.0000
     atom:    3    charge:   12.8364    magn:    1.5483    constr:    0.0000
     atom:    4    charge:   12.7739    magn:    2.6668    constr:    0.0000
     atom:    5    charge:    4.0960    magn:   -0.0042    constr:    0.0000

     total cpu time spent up to now is      241.7 secs

     total energy              =   -1345.16980709 Ry
     Harris-Foulkes estimate   =   -1345.17002099 Ry
     estimated scf accuracy    <       0.00069860 Ry

     total magnetization       =     7.75 Bohr mag/cell
     absolute magnetization    =     8.09 Bohr mag/cell

     iteration # 19     ecut=   130.00 Ry     beta=0.70
     Davidson diagonalization with overlap
     ethr =  8.45E-07,  avg # of iterations =  2.0

     negative rho (up, down):  0.000E+00 2.174E-04
 
     Magnetic moment per site:
     atom:    1    charge:   12.8368    magn:    1.5321    constr:    0.0000
     atom:    2    charge:   12.8368    magn:    1.5321    constr:    0.0000
     atom:    3    charge:   12.8368    magn:    1.5321    constr:    0.0000
     atom:    4    charge:   12.7739    magn:    2.6662    constr:    0.0000
     atom:    5    charge:    4.0953    magn:   -0.0056    constr:    0.0000

     total cpu time spent up to now is      253.6 secs

     total energy              =   -1345.17001681 Ry
     Harris-Foulkes estimate   =   -1345.16998937 Ry
     estimated scf accuracy    <       0.00011658 Ry

     total magnetization       =     7.84 Bohr mag/cell
     absolute magnetization    =     8.19 Bohr mag/cell

     iteration # 20     ecut=   130.00 Ry     beta=0.70
     Davidson diagonalization with overlap
     ethr =  1.69E-07,  avg # of iterations =  1.3

     negative rho (up, down):  0.000E+00 1.935E-04
 
     Magnetic moment per site:
     atom:    1    charge:   12.8371    magn:    1.4853    constr:    0.0000
     atom:    2    charge:   12.8371    magn:    1.4853    constr:    0.0000
     atom:    3    charge:   12.8371    magn:    1.4853    constr:    0.0000
     atom:    4    charge:   12.7736    magn:    2.6510    constr:    0.0000
     atom:    5    charge:    4.0952    magn:   -0.0030    constr:    0.0000

     total cpu time spent up to now is      265.4 secs

     total energy              =   -1345.16992799 Ry
     Harris-Foulkes estimate   =   -1345.17003442 Ry
     estimated scf accuracy    <       0.00011664 Ry

     total magnetization       =     7.80 Bohr mag/cell
     absolute magnetization    =     8.15 Bohr mag/cell

     iteration # 21     ecut=   130.00 Ry     beta=0.70
     Davidson diagonalization with overlap
     ethr =  1.69E-07,  avg # of iterations =  2.8

     negative rho (up, down):  0.000E+00 1.931E-04
 
     Magnetic moment per site:
     atom:    1    charge:   12.8373    magn:    1.4841    constr:    0.0000
     atom:    2    charge:   12.8373    magn:    1.4841    constr:    0.0000
     atom:    3    charge:   12.8373    magn:    1.4841    constr:    0.0000
     atom:    4    charge:   12.7737    magn:    2.6535    constr:    0.0000
     atom:    5    charge:    4.0949    magn:   -0.0043    constr:    0.0000

     total cpu time spent up to now is      278.7 secs

     total energy              =   -1345.17009688 Ry
     Harris-Foulkes estimate   =   -1345.17009622 Ry
     estimated scf accuracy    <       0.00000672 Ry

     total magnetization       =     7.68 Bohr mag/cell
     absolute magnetization    =     8.03 Bohr mag/cell

     iteration # 22     ecut=   130.00 Ry     beta=0.70
     Davidson diagonalization with overlap
     ethr =  9.75E-09,  avg # of iterations =  2.2

     negative rho (up, down):  0.000E+00 1.941E-04
 
     Magnetic moment per site:
     atom:    1    charge:   12.8373    magn:    1.4852    constr:    0.0000
     atom:    2    charge:   12.8373    magn:    1.4852    constr:    0.0000
     atom:    3    charge:   12.8373    magn:    1.4852    constr:    0.0000
     atom:    4    charge:   12.7738    magn:    2.6538    constr:    0.0000
     atom:    5    charge:    4.0950    magn:   -0.0042    constr:    0.0000

     total cpu time spent up to now is      290.9 secs

     total energy              =   -1345.17009792 Ry
     Harris-Foulkes estimate   =   -1345.17009821 Ry
     estimated scf accuracy    <       0.00000390 Ry

     total magnetization       =     7.67 Bohr mag/cell
     absolute magnetization    =     8.02 Bohr mag/cell

     iteration # 23     ecut=   130.00 Ry     beta=0.70
     Davidson diagonalization with overlap
     ethr =  5.66E-09,  avg # of iterations =  1.5

     negative rho (up, down):  0.000E+00 1.944E-04
 
     Magnetic moment per site:
     atom:    1    charge:   12.8374    magn:    1.4856    constr:    0.0000
     atom:    2    charge:   12.8374    magn:    1.4856    constr:    0.0000
     atom:    3    charge:   12.8374    magn:    1.4856    constr:    0.0000
     atom:    4    charge:   12.7739    magn:    2.6542    constr:    0.0000
     atom:    5    charge:    4.0949    magn:   -0.0040    constr:    0.0000

     total cpu time spent up to now is      302.8 secs

     total energy              =   -1345.17009841 Ry
     Harris-Foulkes estimate   =   -1345.17009841 Ry
     estimated scf accuracy    <       0.00000037 Ry

     total magnetization       =     7.68 Bohr mag/cell
     absolute magnetization    =     8.03 Bohr mag/cell

     iteration # 24     ecut=   130.00 Ry     beta=0.70
     Davidson diagonalization with overlap
     ethr =  5.38E-10,  avg # of iterations =  3.1

     negative rho (up, down):  0.000E+00 1.946E-04
 
     Magnetic moment per site:
     atom:    1    charge:   12.8374    magn:    1.4863    constr:    0.0000
     atom:    2    charge:   12.8374    magn:    1.4863    constr:    0.0000
     atom:    3    charge:   12.8374    magn:    1.4863    constr:    0.0000
     atom:    4    charge:   12.7738    magn:    2.6541    constr:    0.0000
     atom:    5    charge:    4.0949    magn:   -0.0039    constr:    0.0000

     total cpu time spent up to now is      316.7 secs

     total energy              =   -1345.17009863 Ry
     Harris-Foulkes estimate   =   -1345.17009867 Ry
     estimated scf accuracy    <       0.00000010 Ry

     total magnetization       =     7.68 Bohr mag/cell
     absolute magnetization    =     8.03 Bohr mag/cell

     iteration # 25     ecut=   130.00 Ry     beta=0.70
     Davidson diagonalization with overlap
     ethr =  1.40E-10,  avg # of iterations =  2.4

     negative rho (up, down):  0.000E+00 1.947E-04
 
     Magnetic moment per site:
     atom:    1    charge:   12.8374    magn:    1.4868    constr:    0.0000
     atom:    2    charge:   12.8374    magn:    1.4868    constr:    0.0000
     atom:    3    charge:   12.8374    magn:    1.4868    constr:    0.0000
     atom:    4    charge:   12.7738    magn:    2.6540    constr:    0.0000
     atom:    5    charge:    4.0950    magn:   -0.0037    constr:    0.0000

     total cpu time spent up to now is      330.2 secs

     total energy              =   -1345.17009870 Ry
     Harris-Foulkes estimate   =   -1345.17009871 Ry
     estimated scf accuracy    <       0.00000009 Ry

     total magnetization       =     7.68 Bohr mag/cell
     absolute magnetization    =     8.03 Bohr mag/cell

     iteration # 26     ecut=   130.00 Ry     beta=0.70
     Davidson diagonalization with overlap
     ethr =  1.28E-10,  avg # of iterations =  2.0

     negative rho (up, down):  0.000E+00 1.950E-04
 
     Magnetic moment per site:
     atom:    1    charge:   12.8374    magn:    1.4874    constr:    0.0000
     atom:    2    charge:   12.8374    magn:    1.4874    constr:    0.0000
     atom:    3    charge:   12.8374    magn:    1.4874    constr:    0.0000
     atom:    4    charge:   12.7739    magn:    2.6539    constr:    0.0000
     atom:    5    charge:    4.0950    magn:   -0.0036    constr:    0.0000

     total cpu time spent up to now is      341.8 secs

     total energy              =   -1345.17009872 Ry
     Harris-Foulkes estimate   =   -1345.17009872 Ry
     estimated scf accuracy    <       0.00000001 Ry

     total magnetization       =     7.68 Bohr mag/cell
     absolute magnetization    =     8.03 Bohr mag/cell

     iteration # 27     ecut=   130.00 Ry     beta=0.70
     Davidson diagonalization with overlap
     ethr =  1.51E-11,  avg # of iterations =  3.1

     negative rho (up, down):  0.000E+00 1.950E-04
 
     Magnetic moment per site:
     atom:    1    charge:   12.8374    magn:    1.4875    constr:    0.0000
     atom:    2    charge:   12.8374    magn:    1.4875    constr:    0.0000
     atom:    3    charge:   12.8374    magn:    1.4875    constr:    0.0000
     atom:    4    charge:   12.7739    magn:    2.6538    constr:    0.0000
     atom:    5    charge:    4.0950    magn:   -0.0036    constr:    0.0000

     total cpu time spent up to now is      356.7 secs

     End of self-consistent calculation

 ------ SPIN UP ------------


          k = 0.0000 0.0000 0.0000 (  8385 PWs)   bands (ev):

   -69.9378 -69.2600 -69.2056 -69.2056 -35.9987 -35.9987 -35.9987 -35.6161
   -35.6161 -35.6161 -35.1589 -35.1589 -35.1589 -35.1523 -35.1523 -35.1523
     0.3456  11.4281  13.3304  13.3304  13.3304  13.8396  13.8396  14.1052
    14.1052  14.1052  16.0923  16.0923  16.0923  17.1985  17.1985  17.8462
    17.8462  18.3984  18.3984  18.3984  18.4659  18.4659  18.4659  18.4676
    21.8876  23.7553

          k = 0.0000 0.0000 0.1111 (  8361 PWs)   bands (ev):

   -69.9377 -69.2586 -69.2071 -69.2056 -35.9977 -35.9977 -35.9973 -35.6149
   -35.6149 -35.6138 -35.1599 -35.1599 -35.1592 -35.1571 -35.1535 -35.1535
     0.4153  11.4855  12.9272  13.1105  13.1105  13.9190  13.9306  14.1575
    14.3442  14.3442  16.0277  16.1463  16.1463  17.2216  17.2574  17.8147
    17.8703  18.3139  18.3139  18.3984  18.3984  18.3986  18.4066  18.4648
    21.9636  23.2363

          k = 0.0000 0.0000 0.2222 (  8389 PWs)   bands (ev):

   -69.9374 -69.2546 -69.2112 -69.2056 -35.9952 -35.9952 -35.9938 -35.6118
   -35.6118 -35.6078 -35.1697 -35.1628 -35.1628 -35.1599 -35.1563 -35.1563
     0.6003  11.3378  12.5043  12.7673  12.7673  14.0812  14.1354  14.3091
    14.7510  14.7510  15.8450  16.2723  16.2723  17.1945  17.2859  17.7245
    17.7688  17.9543  17.9543  18.2395  18.3990  18.4017  18.4017  18.4621
    22.1775  22.5169

          k = 0.0000 0.0000 0.3333 (  8385 PWs)   bands (ev):

   -69.9371 -69.2490 -69.2172 -69.2055 -35.9923 -35.9923 -35.9899 -35.6083
   -35.6083 -35.6003 -35.1846 -35.1665 -35.1665 -35.1608 -35.1592 -35.1592
     0.8282  10.6697  12.4974  12.4974  12.8460  14.1977  14.4174  14.5424
    15.1428  15.1428  15.5762  16.3647  16.3647  16.9838  17.3214  17.3618
    17.5816  17.5816  17.6127  18.0174  18.3994  18.4147  18.4147  18.4592
    22.0442  22.5716

          k = 0.0000 0.0000 0.4444 (  8390 PWs)   bands (ev):

   -69.9369 -69.2436 -69.2227 -69.2055 -35.9904 -35.9904 -35.9874 -35.6060
   -35.6060 -35.5950 -35.1948 -35.1691 -35.1691 -35.1613 -35.1609 -35.1609
     0.9890  10.1829  12.3531  12.3531  13.4007  14.1248  14.6317  14.8080
    15.2874  15.4349  15.4349  16.3334  16.3334  16.7321  16.9440  17.3463
    17.3745  17.3745  17.6401  17.8047  18.3997  18.4300  18.4300  18.4575
    21.9109  22.7894

          k = 0.0000 0.1111 0.1111 (  8388 PWs)   bands (ev):

   -69.9376 -69.2572 -69.2078 -69.2063 -35.9980 -35.9967 -35.9950 -35.6260
   -35.6136 -35.5995 -35.1702 -35.1609 -35.1605 -35.1572 -35.1548 -35.1484
     0.4851  11.5394  12.6986  12.8569  12.9538  13.9962  14.0040  14.2126
    14.4872  14.5137  16.0041  16.1629  16.1927  17.2490  17.2730  17.7261
    17.7834  18.2262  18.2640  18.3182  18.3246  18.4102  18.4792  18.5427
    22.0242  23.4381

          k = 0.0000 0.1111 0.2222 (  8375 PWs)   bands (ev):

   -69.9373 -69.2534 -69.2115 -69.2066 -35.9965 -35.9943 -35.9917 -35.6335
   -35.6105 -35.5835 -35.1856 -35.1654 -35.1636 -35.1584 -35.1578 -35.1441
     0.6704  11.3590  12.2605  12.6631  12.6765  14.1573  14.2068  14.3626
    14.8145  14.8590  15.8419  16.2815  16.2891  17.1599  17.3237  17.4382
    17.5844  17.9115  18.1401  18.1985  18.2421  18.3839  18.5585  18.6825
    22.2028  22.6702

          k = 0.0000 0.1111 0.3333 (  8393 PWs)   bands (ev):

   -69.9370 -69.2478 -69.2173 -69.2066 -35.9937 -35.9915 -35.9891 -35.6373
   -35.6068 -35.5695 -35.2008 -35.1704 -35.1672 -35.1608 -35.1603 -35.1419
     0.8987  10.6615  12.1385  12.4161  12.9459  14.2827  14.4860  14.5915
    15.1752  15.2147  15.5805  16.2918  16.3936  16.9296  17.0979  17.2660
    17.4905  17.5577  17.8566  18.0736  18.1799  18.3775  18.6301  18.6761
    22.2618  22.4505

          k = 0.0000 0.1111 0.4444 (  8388 PWs)   bands (ev):

   -69.9369 -69.2425 -69.2228 -69.2066 -35.9912 -35.9897 -35.9881 -35.6385
   -35.6043 -35.5611 -35.2105 -35.1736 -35.1699 -35.1625 -35.1617 -35.1410
     1.0600  10.1714  12.0377  12.2807  13.4694  14.2194  14.7011  14.8578
    15.2908  15.4589  15.4816  16.1377  16.3913  16.6631  16.8642  17.2557
    17.3557  17.4658  17.7082  17.8997  18.1436  18.3754  18.6541  18.6761
    22.1431  22.6124

          k = 0.0000 0.2222 0.2222 (  8372 PWs)   bands (ev):

   -69.9371 -69.2497 -69.2132 -69.2087 -35.9967 -35.9921 -35.9896 -35.6521
   -35.6069 -35.5581 -35.2069 -35.1680 -35.1659 -35.1614 -35.1601 -35.1305
     0.8566  11.2948  11.5676  12.4409  12.7896  14.3578  14.3838  14.5052
    15.0144  15.1104  15.7600  16.2751  16.3630  17.0228  17.0279  17.3106
    17.4588  17.7427  18.0346  18.0887  18.2580  18.3352  18.7088  18.9946
    22.1161  22.9986

          k = 0.0000 0.2222 0.3333 (  8369 PWs)   bands (ev):

   -69.9369 -69.2444 -69.2178 -69.2096 -35.9953 -35.9895 -35.9889 -35.6645
   -35.6028 -35.5374 -35.2250 -35.1708 -35.1692 -35.1649 -35.1624 -35.1214
     1.0865  10.6285  11.3678  12.2333  13.1803  14.5165  14.6614  14.7165
    15.2789  15.3907  15.5582  16.0664  16.4961  16.7580  16.8088  17.1023
    17.4757  17.6360  17.8032  17.9581  18.1970  18.3523  18.8361  19.0295
    21.9457  22.8236

          k = 0.0000 0.2222 0.4444 (  8384 PWs)   bands (ev):

   -69.9367 -69.2393 -69.2229 -69.2098 -35.9930 -35.9900 -35.9879 -35.6706
   -35.6001 -35.5256 -35.2354 -35.1727 -35.1718 -35.1669 -35.1639 -35.1170
     1.2492  10.1369  11.3033  12.1147  13.6799  14.4693  14.8910  14.9681
    15.2996  15.4959  15.5997  15.8227  16.5519  16.5537  16.6116  17.0969
    17.2981  17.5290  17.8752  17.8801  18.1778  18.2117  18.9128  18.9633
    21.9128  22.7458

          k = 0.0000 0.3333 0.3333 (  8388 PWs)   bands (ev):

   -69.9367 -69.2395 -69.2194 -69.2130 -35.9958 -35.9902 -35.9872 -35.6839
   -35.5982 -35.5121 -35.2445 -35.1717 -35.1708 -35.1695 -35.1649 -35.1066
     1.3190  10.5583  10.5960  12.0539  13.5743  14.8386  14.8436  14.8884
    15.4141  15.4604  15.5952  15.7407  16.5554  16.6484  16.6581  16.8990
    17.3284  17.6095  17.7585  17.9056  18.0439  18.5482  19.0046  19.1748
    21.2662  23.3557

          k = 0.0000 0.3333 0.4444 (  8375 PWs)   bands (ev):

   -69.9366 -69.2344 -69.2230 -69.2146 -35.9947 -35.9924 -35.9858 -35.6940
   -35.5952 -35.4980 -35.2554 -35.1739 -35.1719 -35.1708 -35.1666 -35.0990
     1.4839  10.0901  10.5352  11.9485  14.0225  14.7994  15.0852  15.1285
    15.2955  15.5101  15.5585  15.7467  16.4020  16.4742  16.7780  16.8320
    17.2035  17.4001  17.6212  17.9743  18.1742  18.5812  19.1032  19.1301
    20.9081  23.4489

          k = 0.0000 0.4444 0.4444 (  8378 PWs)   bands (ev):

   -69.9365 -69.2289 -69.2235 -69.2197 -35.9953 -35.9945 -35.9844 -35.7063
   -35.5919 -35.4828 -35.2663 -35.1754 -35.1751 -35.1695 -35.1685 -35.0894
     1.6509  10.0559  10.0563  11.8498  14.3682  15.0249  15.1861  15.2542
    15.2592  15.4093  15.5748  15.8593  16.3142  16.3959  16.5772  16.9872
    17.1140  17.2351  17.4099  17.8580  18.3843  18.9446  19.1753  19.2133
    20.1306  23.9984

          k = 0.1111 0.1111 0.1111 (  8382 PWs)   bands (ev):

   -69.9375 -69.2559 -69.2077 -69.2077 -35.9973 -35.9973 -35.9928 -35.6381
   -35.5984 -35.5984 -35.1733 -35.1695 -35.1695 -35.1505 -35.1487 -35.1487
     0.5549  11.5894  12.5638  12.5638  12.8356  14.0720  14.0720  14.3898
    14.3898  14.7343  15.9888  16.2025  16.2025  17.2671  17.2671  17.6645
    17.6645  17.9913  18.1236  18.3444  18.3444  18.4201  18.6412  18.6412
    22.0744  23.5626

          k = 0.1111 0.1111 0.2222 (  8378 PWs)   bands (ev):

   -69.9372 -69.2521 -69.2117 -69.2077 -35.9963 -35.9955 -35.9896 -35.6503
   -35.5955 -35.5780 -35.1899 -35.1799 -35.1712 -35.1508 -35.1458 -35.1435
     0.7406  11.3710  12.1432  12.2979  12.7589  14.2327  14.2777  14.4627
    14.7623  15.0135  15.8444  16.2850  16.2955  17.1765  17.2944  17.3842
    17.4081  17.7637  17.9272  18.2178  18.3454  18.3566  18.8022  18.8330
    22.2209  22.8349

          k = 0.1111 0.1111 0.3333 (  8401 PWs)   bands (ev):

   -69.9370 -69.2467 -69.2174 -69.2077 -35.9935 -35.9935 -35.9876 -35.6578
   -35.5921 -35.5605 -35.2061 -35.1886 -35.1723 -35.1525 -35.1465 -35.1394
     0.9695  10.6462  12.0641  12.0769  13.0383  14.3640  14.5549  14.6651
    15.1712  15.2806  15.5910  16.2782  16.3445  16.9170  17.0711  17.1119
    17.4312  17.6065  17.7044  18.0899  18.2504  18.3342  18.6813  18.9927
    22.4190  22.4435

          k = 0.1111 0.1111 0.4444 (  8386 PWs)   bands (ev):

   -69.9368 -69.2414 -69.2228 -69.2077 -35.9921 -35.9902 -35.9878 -35.6611
   -35.5899 -35.5503 -35.2161 -35.1936 -35.1729 -35.1537 -35.1480 -35.1374
     1.1313  10.1543  11.9341  12.0078  13.5365  14.3075  14.7712  14.9233
    15.3011  15.4551  15.5307  16.0759  16.2783  16.6261  16.9677  17.0973
    17.3343  17.4993  17.7095  17.9304  18.1846  18.3240  18.5241  19.0841
    22.3370  22.5624

          k = 0.1111 0.2222 0.2222 (  8397 PWs)   bands (ev):

   -69.9371 -69.2486 -69.2132 -69.2099 -35.9967 -35.9946 -35.9872 -35.6705
   -35.5863 -35.5572 -35.2080 -35.1850 -35.1815 -35.1463 -35.1454 -35.1308
     0.9273  11.2971  11.4891  12.0700  12.8957  14.4283  14.4567  14.6314
    14.9392  15.2090  15.7704  16.2699  16.3404  17.0319  17.0920  17.2144
    17.3960  17.5443  17.7224  18.2482  18.2500  18.3219  19.0779  19.1107
    22.1897  23.1065

          k = 0.1111 0.2222 0.3333 (  8370 PWs)   bands (ev):

   -69.9368 -69.2435 -69.2178 -69.2105 -35.9957 -35.9931 -35.9865 -35.6847
   -35.5818 -35.5358 -35.2253 -35.1936 -35.1836 -35.1473 -35.1441 -35.1215
     1.1581  10.5981  11.3113  11.9148  13.2658  14.5777  14.7282  14.8338
    15.2640  15.3767  15.5839  16.1025  16.3723  16.7654  16.9128  17.0316
    17.4422  17.4784  17.6148  18.1522  18.1978  18.2546  18.9969  19.3340
    22.0571  22.8863

          k = 0.1111 0.2222 0.4444 (  8377 PWs)   bands (ev):

   -69.9367 -69.2384 -69.2229 -69.2107 -35.9940 -35.9919 -35.9874 -35.6918
   -35.5793 -35.5233 -35.2353 -35.1992 -35.1841 -35.1481 -35.1441 -35.1169
     1.3216  10.1074  11.2413  11.8218  13.7359  14.5293  14.9597  15.0712
    15.3035  15.4787  15.6039  15.8651  16.2992  16.5436  16.8772  16.9677
    17.3027  17.4483  17.7966  18.0505  18.1011  18.2335  18.7431  19.4755
    22.0153  22.8358

          k = 0.1111 0.3333 0.3333 (  8376 PWs)   bands (ev):

   -69.9367 -69.2387 -69.2194 -69.2138 -35.9965 -35.9931 -35.9866 -35.7049
   -35.5763 -35.5116 -35.2435 -35.1951 -35.1923 -35.1455 -35.1440 -35.1067
     1.3918  10.5243  10.5393  11.7569  13.6361  14.8227  14.9040  15.0688
    15.3299  15.4722  15.5697  15.9051  16.3669  16.6363  16.7528  16.9587
    17.3280  17.3355  17.7956  18.0116  18.1089  18.3397  19.2237  19.4682
    21.3618  23.2565

          k = 0.1111 0.3333 0.4444 (  8373 PWs)   bands (ev):

   -69.9365 -69.2338 -69.2230 -69.2152 -35.9958 -35.9940 -35.9870 -35.7154
   -35.5733 -35.4975 -35.2537 -35.1994 -35.1935 -35.1452 -35.1440 -35.0990
     1.5578  10.0488  10.4834  11.6624  14.0411  14.7951  15.0912  15.2865
    15.2945  15.5095  15.5624  15.9176  16.2899  16.4463  16.7284  16.9211
    17.2031  17.3109  17.8569  17.9767  18.0305  18.4891  19.0172  19.6596
    20.9540  23.3826

          k = 0.1111 0.4444 0.4444 (  8353 PWs)   bands (ev):

   -69.9364 -69.2286 -69.2235 -69.2200 -35.9965 -35.9958 -35.9867 -35.7280
   -35.5701 -35.4827 -35.2640 -35.1993 -35.1989 -35.1443 -35.1440 -35.0894
     1.7261  10.0075  10.0094  11.5676  14.3232  14.9818  15.0455  15.2047
    15.5462  15.5520  15.6301  16.0537  16.2561  16.3620  16.5048  16.9240
    17.1743  17.2217  17.6749  17.9346  18.0858  18.8781  19.1706  19.7004
    20.1198  23.7365

          k = 0.2222 0.2222 0.2222 (  8397 PWs)   bands (ev):

   -69.9369 -69.2454 -69.2132 -69.2132 -35.9966 -35.9966 -35.9855 -35.6961
   -35.5548 -35.5548 -35.2155 -35.1982 -35.1982 -35.1333 -35.1333 -35.1292
     1.1157  11.2709  11.3113  11.3113  13.1134  14.6225  14.6225  14.9421
    14.9421  15.3042  15.7318  16.2796  16.2796  16.9693  16.9693  17.2826
    17.2826  17.2924  17.4274  18.2286  18.2286  18.3820  19.4149  19.4149
    22.2836  23.0622

          k = 0.2222 0.2222 0.3333 (  8370 PWs)   bands (ev):

   -69.9367 -69.2407 -69.2180 -69.2131 -35.9966 -35.9965 -35.9861 -35.7153
   -35.5521 -35.5288 -35.2295 -35.2111 -35.2008 -35.1332 -35.1255 -35.1197
     1.3491  10.5169  11.1354  11.2355  13.4789  14.7340  14.8921  15.1007
    15.2919  15.2957  15.6690  16.1481  16.2342  16.7244  16.7863  17.1818
    17.1848  17.3775  17.5208  18.1617  18.2199  18.3166  19.2420  19.7643
    22.2489  22.6937

          k = 0.2222 0.2222 0.4444 (  8364 PWs)   bands (ev):

   -69.9366 -69.2359 -69.2229 -69.2131 -35.9965 -35.9948 -35.9882 -35.7252
   -35.5503 -35.5142 -35.2385 -35.2182 -35.2011 -35.1338 -35.1221 -35.1142
     1.5149  10.0325  11.0318  11.1937  13.8848  14.6647  15.1475  15.1482
    15.4032  15.4926  15.6118  15.9868  16.1838  16.4976  16.7715  17.0066
    17.1469  17.5602  17.7234  18.0968  18.1968  18.2424  18.8110  20.0146
    22.2604  22.3757

          k = 0.2222 0.3333 0.3333 (  8363 PWs)   bands (ev):

   -69.9366 -69.2365 -69.2194 -69.2160 -35.9983 -35.9975 -35.9880 -35.7391
   -35.5396 -35.5104 -35.2414 -35.2163 -35.2129 -35.1244 -35.1229 -35.1069
     1.5865  10.4048  10.4372  11.0622  13.7834  14.8929  14.9974  15.1538
    15.4039  15.4573  15.8016  16.1026  16.2134  16.6139  16.6343  16.9619
    17.3041  17.3492  17.6463  18.1531  18.2325  18.2823  19.4027  19.9185
    21.6314  22.6893

          k = 0.2222 0.3333 0.4444 (  8379 PWs)   bands (ev):

   -69.9365 -69.2321 -69.2230 -69.2168 -35.9987 -35.9975 -35.9905 -35.7519
   -35.5363 -35.4961 -35.2498 -35.2222 -35.2143 -35.1239 -35.1190 -35.0990
     1.7558   9.9479  10.3579  10.9828  14.0723  14.8050  15.0274  15.2238
    15.4902  15.7149  15.8752  16.1620  16.1879  16.4234  16.6203  16.8038
    17.2861  17.5123  17.7757  18.1065  18.1697  18.3883  19.0268  20.2484
    21.0540  22.6441

          k = 0.2222 0.4444 0.4444 (  8368 PWs)   bands (ev):

   -69.9364 -69.2278 -69.2234 -69.2208 -35.9995 -35.9992 -35.9926 -35.7663
   -35.5319 -35.4825 -35.2580 -35.2219 -35.2213 -35.1191 -35.1188 -35.0894
     1.9280   9.8899   9.8972  10.8925  14.2096  14.8980  14.9499  15.0892
    15.6724  16.0016  16.1138  16.2023  16.2635  16.3989  16.5122  16.6596
    17.4070  17.4418  17.8216  17.9831  18.1013  18.7647  19.1472  19.9409
    20.4398  22.9022

          k = 0.3333 0.3333 0.3333 (  8378 PWs)   bands (ev):

   -69.9365 -69.2332 -69.2193 -69.2193 -36.0004 -36.0004 -35.9916 -35.7669
   -35.5090 -35.5090 -35.2425 -35.2282 -35.2282 -35.1093 -35.1093 -35.1048
     1.8295  10.2648  10.2648  10.4019  13.9571  14.9421  14.9946  14.9946
    15.6695  15.6695  16.1353  16.2180  16.2180  16.5753  16.5753  16.7368
    17.4736  17.5587  17.5587  18.2041  18.2041  18.3425  19.7539  19.7539
    21.9452  21.9452

          k = 0.3333 0.3333 0.4444 (  8371 PWs)   bands (ev):

   -69.9364 -69.2295 -69.2230 -69.2193 -36.0017 -36.0009 -35.9953 -35.7819
   -35.5080 -35.4920 -35.2475 -35.2363 -35.2295 -35.1082 -35.1016 -35.0977
     2.0036   9.8388  10.1796  10.3016  14.0868  14.8131  14.9325  15.0660
    15.7100  15.9687  16.2185  16.2971  16.3761  16.5446  16.5852  16.7067
    17.4821  17.6857  17.7214  18.2225  18.2881  18.3197  19.0865  20.2693
    21.0594  21.9463

          k = 0.3333 0.4444 0.4444 (  8346 PWs)   bands (ev):

   -69.9364 -69.2265 -69.2234 -69.2219 -36.0030 -36.0029 -35.9992 -35.7983
   -35.4998 -35.4823 -35.2515 -35.2381 -35.2374 -35.1000 -35.0997 -35.0893
     2.1818   9.7652   9.7774  10.1657  14.0871  14.8238  14.8780  14.9434
    15.8650  16.0633  16.2512  16.2631  16.4466  16.8099  16.8159  16.9891
    17.6312  17.6607  17.7496  18.2081  18.2604  18.5489  19.0742  19.6185
    20.9370  21.9309

          k = 0.4444 0.4444 0.4444 (  8357 PWs)   bands (ev):

   -69.9363 -69.2250 -69.2234 -69.2234 -36.0052 -36.0052 -36.0038 -35.8159
   -35.4821 -35.4821 -35.2479 -35.2457 -35.2457 -35.0897 -35.0897 -35.0889
     2.3652   9.6882   9.6882   9.7165  14.0122  14.7930  14.8335  14.8335
    16.0117  16.0117  16.2631  16.2631  16.3295  17.4465  17.4465  17.4748
    17.7442  17.7442  17.9041  18.3147  18.3147  18.3175  18.9397  18.9397
    21.2442  21.2442

 ------ SPIN DOWN ----------


          k = 0.0000 0.0000 0.0000 (  8385 PWs)   bands (ev):

   -67.3633 -67.3025 -67.3025 -66.5337 -33.9863 -33.9863 -33.9863 -33.2304
   -33.2304 -33.2304 -33.1916 -33.1916 -33.1916 -32.6391 -32.6391 -32.6391
     0.4464  11.7278  13.3949  13.3949  13.3949  15.2108  15.2108  15.5338
    15.5338  15.5338  18.0413  18.0413  18.0413  18.7049  18.7049  20.2818
    20.2818  20.2818  20.4082  20.4082  20.5093  20.8708  20.8708  20.8708
    23.0637  23.9614

          k = 0.0000 0.0000 0.1111 (  8361 PWs)   bands (ev):

   -67.3616 -67.3041 -67.3025 -66.5337 -33.9851 -33.9851 -33.9846 -33.2308
   -33.2293 -33.2293 -33.1927 -33.1927 -33.1920 -32.6420 -32.6403 -32.6403
     0.5154  11.7587  13.0944  13.2813  13.2813  15.2707  15.3101  15.5910
    15.6869  15.6869  17.9636  18.1037  18.1037  18.7113  18.8016  20.2361
    20.2361  20.2820  20.3478  20.3646  20.4465  20.6204  20.6204  20.8708
    23.1050  23.6079

          k = 0.0000 0.0000 0.2222 (  8389 PWs)   bands (ev):

   -67.3569 -67.3086 -67.3025 -66.5340 -33.9820 -33.9820 -33.9802 -33.2317
   -33.2268 -33.2268 -33.1956 -33.1956 -33.1929 -32.6493 -32.6433 -32.6433
     0.6981  11.5211  12.8548  13.0421  13.0421  15.3358  15.5858  15.7547
    16.0362  16.0362  17.7482  18.2774  18.2774  18.7207  18.8140  19.9888
    19.9888  20.1244  20.1429  20.2203  20.2203  20.2825  20.3766  20.8710
    23.0983  23.2967

          k = 0.0000 0.0000 0.3333 (  8385 PWs)   bands (ev):

   -67.3500 -67.3152 -67.3025 -66.5342 -33.9784 -33.9784 -33.9751 -33.2328
   -33.2239 -33.2239 -33.1987 -33.1987 -33.1939 -32.6577 -32.6469 -32.6469
     0.9225  10.8627  12.8211  12.8211  13.2719  15.2194  15.9597  15.9957
    16.4090  16.4090  17.4489  18.5183  18.5183  18.5894  18.7028  19.4685
    19.4685  19.7688  19.8264  20.0528  20.0528  20.2830  20.3216  20.8712
    22.9357  23.5441

          k = 0.0000 0.0000 0.4444 (  8390 PWs)   bands (ev):

   -67.3435 -67.3216 -67.3024 -66.5344 -33.9761 -33.9761 -33.9717 -33.2335
   -33.2221 -33.2221 -33.2007 -33.2007 -33.1945 -32.6633 -32.6492 -32.6492
     1.0804  10.3966  12.6956  12.6956  13.9348  14.7949  16.2273  16.2617
    16.6611  16.6611  17.1796  18.4157  18.6443  18.7638  18.7638  19.0533
    19.0533  19.4981  19.6038  19.9436  19.9436  20.2834  20.2855  20.8714
    22.9017  23.7480

          k = 0.0000 0.1111 0.1111 (  8388 PWs)   bands (ev):

   -67.3600 -67.3048 -67.3033 -66.5338 -33.9979 -33.9839 -33.9692 -33.2348
   -33.2283 -33.2275 -33.1974 -33.1939 -33.1864 -32.6458 -32.6415 -32.6399
     0.5843  11.7909  12.8623  13.1407  13.1803  15.3468  15.3813  15.6569
    15.8149  15.8157  17.9273  18.1264  18.1580  18.7524  18.7970  20.1519
    20.1887  20.2136  20.2574  20.3573  20.4304  20.5234  20.5313  20.7750
    23.1399  23.8585

          k = 0.0000 0.1111 0.2222 (  8375 PWs)   bands (ev):

   -67.3554 -67.3089 -67.3036 -66.5340 -34.0072 -33.9808 -33.9530 -33.2419
   -33.2257 -33.2252 -33.2007 -33.1967 -33.1812 -32.6521 -32.6446 -32.6421
     0.7672  11.5463  12.5128  12.9612  13.0785  15.4218  15.6387  15.8238
    16.1195  16.1289  17.7351  18.2829  18.2973  18.6949  18.7302  19.8201
    19.9570  19.9616  20.0877  20.2027  20.3614  20.3781  20.4820  20.7404
    23.2073  23.4014

          k = 0.0000 0.1111 0.3333 (  8393 PWs)   bands (ev):

   -67.3487 -67.3153 -67.3036 -66.5343 -34.0128 -33.9773 -33.9394 -33.2490
   -33.2228 -33.2227 -33.2029 -33.1998 -33.1779 -32.6581 -32.6482 -32.6458
     0.9919  10.8684  12.4342  12.7538  13.4033  15.3133  16.0058  16.0656
    16.4580  16.4685  17.4444  18.3445  18.4940  18.5278  18.6586  19.4838
    19.5002  19.7221  19.8939  19.9376  20.2481  20.3631  20.3845  20.7411
    23.1204  23.4633

          k = 0.0000 0.1111 0.4444 (  8388 PWs)   bands (ev):

   -67.3422 -67.3215 -67.3036 -66.5344 -34.0154 -33.9750 -33.9316 -33.2533
   -33.2210 -33.2208 -33.2043 -33.2018 -33.1765 -32.6615 -32.6505 -32.6487
     1.1502  10.3980  12.3632  12.6345  14.0099  14.9060  16.3027  16.3043
    16.6884  16.7033  17.1804  18.1822  18.3309  18.7858  18.7918  19.0852
    19.3046  19.5824  19.6175  19.8230  20.1432  20.3061  20.3648  20.7427
    23.1033  23.5995

          k = 0.0000 0.2222 0.2222 (  8372 PWs)   bands (ev):

   -67.3511 -67.3107 -67.3059 -66.5342 -34.0285 -33.9778 -33.9264 -33.2580
   -33.2254 -33.2228 -33.2044 -33.1995 -33.1668 -32.6560 -32.6478 -32.6420
     0.9507  11.4993  11.8225  12.7780  13.2518  15.6152  15.7742  15.9976
    16.3300  16.3639  17.6312  18.2675  18.3697  18.5063  18.5789  19.6838
    19.7681  19.8182  19.9192  20.0934  20.4438  20.4477  20.5157  20.6850
    23.1194  23.9535

          k = 0.0000 0.2222 0.3333 (  8369 PWs)   bands (ev):

   -67.3449 -67.3157 -67.3068 -66.5344 -34.0436 -33.9744 -33.9053 -33.2717
   -33.2252 -33.2196 -33.2087 -33.2027 -33.1556 -32.6577 -32.6515 -32.6445
     1.1764  10.8720  11.6513  12.5971  13.6636  15.5699  16.0780  16.2384
    16.5926  16.6219  17.4055  17.9798  18.2661  18.5839  18.5889  19.5185
    19.5368  19.7119  19.7454  19.8917  20.4108  20.4112  20.4841  20.6813
    23.0117  23.7346

          k = 0.0000 0.2222 0.4444 (  8384 PWs)   bands (ev):

   -67.3388 -67.3214 -67.3070 -66.5345 -34.0513 -33.9721 -33.8936 -33.2793
   -33.2240 -33.2175 -33.2125 -33.2047 -33.1497 -32.6571 -32.6539 -32.6477
     1.3357  10.3962  11.6143  12.4905  14.2184  15.2002  16.3419  16.4885
    16.7635  16.8473  17.1760  17.7082  18.1344  18.6119  18.8662  19.1781
    19.3755  19.6219  19.6728  19.8139  20.3955  20.4159  20.4755  20.5145
    23.0491  23.6574

          k = 0.0000 0.3333 0.3333 (  8388 PWs)   bands (ev):

   -67.3393 -67.3173 -67.3105 -66.5345 -34.0659 -33.9711 -33.8791 -33.2896
   -33.2275 -33.2161 -33.2158 -33.2059 -33.1379 -32.6554 -32.6553 -32.6447
     1.4040  10.8321  10.8971  12.4377  14.0756  15.8685  16.0261  16.4610
    16.7899  16.7993  17.2933  17.6318  18.0637  18.5080  18.7331  19.3589
    19.5307  19.5349  19.7315  19.9251  20.1461  20.5074  20.5139  20.8576
    22.5357  24.3136

          k = 0.0000 0.3333 0.4444 (  8375 PWs)   bands (ev):

   -67.3335 -67.3213 -67.3122 -66.5346 -34.0776 -33.9689 -33.8647 -33.2993
   -33.2278 -33.2219 -33.2138 -33.2079 -33.1283 -32.6578 -32.6520 -32.6467
     1.5648  10.3854  10.8478  12.3421  14.5569  15.6034  16.2205  16.6899
    16.8596  17.0667  17.1529  17.3662  17.9800  18.4027  18.9746  19.2076
    19.2668  19.5030  19.5851  20.0350  20.0962  20.5259  20.5915  20.7764
    22.3312  24.3169

          k = 0.0000 0.4444 0.4444 (  8378 PWs)   bands (ev):

   -67.3275 -67.3217 -67.3177 -66.5347 -34.0916 -33.9668 -33.8491 -33.3099
   -33.2300 -33.2284 -33.2113 -33.2101 -33.1167 -32.6603 -32.6483 -32.6466
     1.7271  10.3719  10.3759  12.2524  14.9226  15.9623  15.9824  16.8462
    16.9118  16.9144  17.1168  17.5509  17.9121  18.1335  19.0470  19.0622
    19.3046  19.4725  19.5337  19.7154  20.2629  20.5386  20.7786  20.8777
    21.8698  24.8268

          k = 0.1111 0.1111 0.1111 (  8382 PWs)   bands (ev):

   -67.3584 -67.3048 -67.3048 -66.5339 -34.0112 -33.9681 -33.9681 -33.2357
   -33.2305 -33.2305 -33.1953 -33.1953 -33.1825 -32.6495 -32.6408 -32.6408
     0.6533  11.8238  12.7773  12.7773  13.1937  15.4349  15.4349  15.7981
    15.7981  15.9801  17.8995  18.1709  18.1709  18.7708  18.7708  20.0059
    20.1167  20.1423  20.1423  20.4007  20.4007  20.4021  20.6833  20.6833
    23.1813  24.0627

          k = 0.1111 0.1111 0.2222 (  8378 PWs)   bands (ev):

   -67.3539 -67.3091 -67.3048 -66.5341 -34.0255 -33.9652 -33.9473 -33.2432
   -33.2377 -33.2284 -33.1952 -33.1925 -33.1768 -32.6552 -32.6431 -32.6426
     0.8364  11.5663  12.4037  12.5863  13.2017  15.5072  15.6958  15.9216
    16.1321  16.2325  17.7287  18.2747  18.2896  18.6803  18.6805  19.6476
    19.7885  19.9249  19.9928  20.2989  20.4493  20.4715  20.5382  20.7275
    23.2587  23.5525

          k = 0.1111 0.1111 0.3333 (  8401 PWs)   bands (ev):

   -67.3474 -67.3154 -67.3048 -66.5343 -34.0352 -33.9620 -33.9301 -33.2513
   -33.2454 -33.2238 -33.1935 -33.1922 -33.1726 -32.6592 -32.6471 -32.6458
     1.0616  10.8681  12.3700  12.3991  13.5156  15.4060  16.0632  16.1450
    16.4747  16.5169  17.4472  18.2332  18.3238  18.6237  18.6587  19.2551
    19.5476  19.7156  19.8097  20.1301  20.3508  20.3764  20.5341  20.6672
    23.2545  23.4791

          k = 0.1111 0.1111 0.4444 (  8386 PWs)   bands (ev):

   -67.3411 -67.3215 -67.3048 -66.5344 -34.0400 -33.9599 -33.9204 -33.2561
   -33.2500 -33.2196 -33.1936 -33.1920 -33.1704 -32.6601 -32.6518 -32.6475
     1.2202  10.3943  12.2895  12.3296  14.0814  15.0142  16.3635  16.3824
    16.6156  16.8204  17.1841  17.9898  18.2137  18.7874  18.8094  19.0184
    19.2800  19.6464  19.6874  20.0051  20.1068  20.3070  20.5545  20.6461
    23.2678  23.5692

          k = 0.1111 0.2222 0.2222 (  8397 PWs)   bands (ev):

   -67.3498 -67.3107 -67.3071 -66.5342 -34.0485 -33.9563 -33.9256 -33.2586
   -33.2399 -33.2387 -33.1903 -33.1872 -33.1654 -32.6592 -32.6449 -32.6422
     1.0203  11.5143  11.7665  12.3871  13.3762  15.7046  15.8410  16.1112
    16.3314  16.3851  17.6418  18.2109  18.2630  18.5894  18.6019  19.4317
    19.5366  19.8336  19.8428  20.2439  20.4424  20.4846  20.7327  20.8287
    23.2305  23.9475

          k = 0.1111 0.2222 0.3333 (  8370 PWs)   bands (ev):

   -67.3438 -67.3157 -67.3078 -66.5344 -34.0654 -33.9523 -33.9039 -33.2731
   -33.2495 -33.2376 -33.1874 -33.1850 -33.1547 -32.6602 -32.6479 -32.6441
     1.2467  10.8576  11.6118  12.2611  13.7622  15.6580  16.1556  16.3305
    16.5273  16.6655  17.4264  17.9408  18.1451  18.6008  18.6610  19.2783
    19.3046  19.7071  19.8064  20.0897  20.3805  20.4335  20.7265  20.8365
    23.1215  23.7699

          k = 0.1111 0.2222 0.4444 (  8377 PWs)   bands (ev):

   -67.3378 -67.3214 -67.3080 -66.5345 -34.0743 -33.9501 -33.8915 -33.2812
   -33.2554 -33.2364 -33.1857 -33.1848 -33.1489 -32.6574 -32.6524 -32.6461
     1.4065  10.3802  11.5688  12.1837  14.2833  15.2978  16.4055  16.5688
    16.6595  16.9778  17.1957  17.6111  18.0539  18.6269  18.8412  19.0778
    19.1794  19.7032  19.8061  19.9542  20.3197  20.3832  20.4882  20.8721
    23.1473  23.7266

          k = 0.1111 0.3333 0.3333 (  8376 PWs)   bands (ev):

   -67.3384 -67.3173 -67.3113 -66.5345 -34.0885 -33.9479 -33.8787 -33.2919
   -33.2523 -33.2488 -33.1844 -33.1826 -33.1376 -32.6591 -32.6491 -32.6440
     1.4752  10.8125  10.8549  12.1299  14.1549  15.9507  16.0734  16.5541
    16.6814  16.8734  17.3270  17.6481  17.9844  18.5075  18.7407  19.0989
    19.3925  19.5428  19.9241  19.9250  20.2619  20.4113  20.8986  20.9781
    22.5962  24.2112

          k = 0.1111 0.3333 0.4444 (  8373 PWs)   bands (ev):

   -67.3329 -67.3213 -67.3128 -66.5346 -34.1008 -33.9456 -33.8644 -33.3020
   -33.2581 -33.2511 -33.1829 -33.1821 -33.1282 -32.6572 -32.6496 -32.6454
     1.6369  10.3570  10.8093  12.0489  14.6044  15.6787  16.2444  16.7774
    16.8629  17.0626  17.1777  17.4111  17.9285  18.4039  18.8157  18.9915
    19.3560  19.5852  19.7345  19.9966  20.1411  20.5095  20.7321  21.0731
    22.3521  24.2449

          k = 0.1111 0.4444 0.4444 (  8353 PWs)   bands (ev):

   -67.3272 -67.3217 -67.3180 -66.5347 -34.1151 -33.9434 -33.8490 -33.3131
   -33.2602 -33.2595 -33.1815 -33.1813 -33.1167 -32.6577 -32.6466 -32.6453
     1.8003  10.3374  10.3389  11.9663  14.9333  15.9997  16.0395  16.8471
    16.9395  17.0016  17.1566  17.6202  17.8812  18.1384  18.6869  19.0345
    19.4391  19.5801  19.6276  19.9201  19.9910  20.7272  20.8655  21.1313
    21.8236  24.5857

          k = 0.2222 0.2222 0.2222 (  8397 PWs)   bands (ev):

   -67.3461 -67.3107 -67.3107 -66.5343 -34.0772 -33.9236 -33.9236 -33.2610
   -33.2610 -33.2583 -33.1743 -33.1743 -33.1594 -32.6622 -32.6426 -32.6426
     1.2053  11.5058  11.6334  11.6334  13.6119  15.9658  15.9658  16.3813
    16.3963  16.3963  17.6136  18.0862  18.0862  18.6338  18.6338  19.2217
    19.2257  19.7410  19.7410  20.3383  20.4372  20.4372  21.0803  21.0803
    23.3975  23.8155

          k = 0.2222 0.2222 0.3333 (  8370 PWs)   bands (ev):

   -67.3406 -67.3159 -67.3106 -66.5345 -34.0993 -33.9214 -33.8970 -33.2780
   -33.2757 -33.2612 -33.1693 -33.1638 -33.1499 -32.6612 -32.6441 -32.6431
     1.4338  10.8145  11.4943  11.5405  14.0012  15.8919  16.3475  16.3803
    16.5661  16.7441  17.4591  17.8195  17.9649  18.6059  18.6852  18.9746
    19.2133  19.6811  19.7895  20.2385  20.3910  20.4170  20.9559  21.2856
    23.3376  23.6139

          k = 0.2222 0.2222 0.4444 (  8364 PWs)   bands (ev):

   -67.3351 -67.3213 -67.3106 -66.5346 -34.1110 -33.9198 -33.8822 -33.2875
   -33.2844 -33.2622 -33.1675 -33.1589 -33.1439 -32.6567 -32.6489 -32.6434
     1.5953  10.3374  11.4094  11.5222  14.4640  15.5470  16.4100  16.6964
    16.7872  17.0775  17.2512  17.4547  17.9245  18.6156  18.7204  18.7988
    19.2518  19.7834  19.8996  20.1211  20.3449  20.3569  20.5391  21.3920
    23.3749  23.4641

          k = 0.2222 0.3333 0.3333 (  8363 PWs)   bands (ev):

   -67.3360 -67.3173 -67.3137 -66.5346 -34.1261 -33.9090 -33.8778 -33.2979
   -33.2823 -33.2784 -33.1583 -33.1564 -33.1367 -32.6586 -32.6432 -32.6422
     1.6653  10.7519  10.7599  11.4199  14.3575  16.1253  16.1727  16.5861
    16.7957  16.9208  17.4228  17.6828  17.8432  18.5149  18.6477  18.7611
    19.3526  19.6422  19.8905  20.1763  20.3804  20.3975  21.0670  21.4862
    22.7514  23.7080

          k = 0.2222 0.3333 0.4444 (  8379 PWs)   bands (ev):

   -67.3310 -67.3213 -67.3146 -66.5346 -34.1405 -33.9061 -33.8631 -33.3090
   -33.2910 -33.2828 -33.1560 -33.1517 -33.1277 -32.6541 -32.6450 -32.6419
     1.8296  10.2854  10.7139  11.3581  14.7233  15.8569  16.2688  16.8386
    17.0108  17.0610  17.3088  17.5573  17.8460  18.4192  18.5338  18.7262
    19.4679  19.7473  19.9626  20.0612  20.3211  20.4543  20.7322  21.6897
    22.3543  23.6882

          k = 0.2222 0.4444 0.4444 (  8368 PWs)   bands (ev):

   -67.3263 -67.3216 -67.3188 -66.5346 -34.1565 -33.9021 -33.8488 -33.3210
   -33.2948 -33.2941 -33.1505 -33.1503 -33.1165 -32.6511 -32.6426 -32.6421
     1.9962  10.2480  10.2521  11.2852  14.9445  16.0839  16.1702  16.6780
    17.2035  17.2400  17.3385  17.7454  17.8434  18.1950  18.3675  18.7277
    19.6942  19.7350  19.8892  19.9599  20.2300  20.6465  20.8150  21.6137
    21.8565  23.8904

          k = 0.3333 0.3333 0.3333 (  8378 PWs)   bands (ev):

   -67.3323 -67.3173 -67.3173 -66.5346 -34.1567 -33.8768 -33.8768 -33.3056
   -33.3056 -33.2997 -33.1402 -33.1402 -33.1331 -32.6542 -32.6402 -32.6402
     1.9014  10.6411  10.6411  10.7352  14.6293  16.0841  16.4467  16.4467
    17.0959  17.0959  17.5103  17.7474  17.7474  18.4507  18.5258  18.5258
    19.5065  19.8516  19.8516  20.2897  20.3762  20.3762  21.3676  21.3676
    22.9691  22.9691

          k = 0.3333 0.3333 0.4444 (  8371 PWs)   bands (ev):

   -67.3282 -67.3212 -67.3172 -66.5346 -34.1733 -33.8761 -33.8590 -33.3182
   -33.3143 -33.3073 -33.1375 -33.1310 -33.1254 -32.6487 -32.6408 -32.6388
     2.0696  10.2051  10.5720  10.6656  14.8544  16.0354  16.2878  16.6330
    17.3156  17.3328  17.5110  17.7318  17.8244  18.2900  18.4216  18.5175
    19.6669  19.9044  20.0204  20.2101  20.3907  20.4083  20.7762  21.7177
    22.3424  23.1532

          k = 0.3333 0.4444 0.4444 (  8346 PWs)   bands (ev):

   -67.3250 -67.3216 -67.3200 -66.5346 -34.1913 -33.8676 -33.8486 -33.3298
   -33.3212 -33.3204 -33.1283 -33.1279 -33.1164 -32.6435 -32.6384 -32.6382
     2.2411  10.1492  10.1587  10.5578  14.9333  16.1689  16.2824  16.4797
    17.5928  17.5997  17.6674  17.8604  17.8667  18.1336  18.3003  18.4927
    19.8640  19.9513  20.0419  20.1416  20.4199  20.4855  20.7229  21.2314
    22.3663  23.1198

          k = 0.4444 0.4444 0.4444 (  8357 PWs)   bands (ev):

   -67.3234 -67.3216 -67.3216 -66.5346 -34.2104 -33.8485 -33.8485 -33.3355
   -33.3355 -33.3345 -33.1168 -33.1168 -33.1159 -32.6380 -32.6359 -32.6359
     2.4168  10.0869  10.0869  10.1095  14.9152  16.2389  16.3302  16.3302
    17.8951  17.8951  17.9812  17.9812  17.9855  18.0025  18.3667  18.3667
    20.0133  20.0712  20.0712  20.2606  20.3448  20.3448  20.7351  20.7351
    22.6690  22.6690

     the Fermi energy is    18.7321 ev

!    total energy              =   -1345.17009874 Ry
     Harris-Foulkes estimate   =   -1345.17009874 Ry
     estimated scf accuracy    <          5.2E-09 Ry

     total all-electron energy =    -10291.771734 Ry

     The total energy is the sum of the following terms:

     one-electron contribution =    -446.73646394 Ry
     hartree contribution      =     269.20213928 Ry
     xc contribution           =    -117.08757055 Ry
     ewald contribution        =    -711.61403732 Ry
     one-center paw contrib.   =    -338.93425650 Ry
     smearing contrib. (-TS)   =       0.00009028 Ry

     total magnetization       =     7.68 Bohr mag/cell
     absolute magnetization    =     8.03 Bohr mag/cell

     convergence has been achieved in  27 iterations

     Forces acting on atoms (Ry/au):


     negative rho (up, down):  0.000E+00 1.950E-04
     atom    1 type  1   force =     0.00000000    0.00000000    0.00000000
     atom    2 type  1   force =     0.00000000    0.00000000    0.00000000
     atom    3 type  1   force =     0.00000000    0.00000000    0.00000000
     atom    4 type  1   force =     0.00000000    0.00000000    0.00000000
     atom    5 type  2   force =     0.00000000    0.00000000    0.00000000

     Total force =     0.000000     Total SCF correction =     0.000000


     entering subroutine stress ...


     negative rho (up, down):  0.000E+00 1.950E-04
          total   stress  (Ry/bohr**3)                   (kbar)     P=  146.78
   0.00099779   0.00000000   0.00000000        146.78      0.00      0.00
   0.00000000   0.00099779   0.00000000          0.00    146.78      0.00
   0.00000000   0.00000000   0.00099779          0.00      0.00    146.78


     Writing output data file config.save
 
     init_run     :      5.05s CPU      5.22s WALL (       1 calls)
     electrons    :    343.93s CPU    351.10s WALL (       1 calls)
     forces       :      1.21s CPU      1.23s WALL (       1 calls)
     stress       :      3.64s CPU      3.74s WALL (       1 calls)

     Called by init_run:
     wfcinit      :      4.00s CPU      4.09s WALL (       1 calls)
     potinit      :      0.54s CPU      0.56s WALL (       1 calls)

     Called by electrons:
     c_bands      :    275.24s CPU    279.56s WALL (      27 calls)
     sum_band     :     52.74s CPU     54.46s WALL (      27 calls)
     v_of_rho     :      1.94s CPU      1.98s WALL (      28 calls)
     newd         :      2.75s CPU      3.34s WALL (      28 calls)
     mix_rho      :      0.55s CPU      0.55s WALL (      27 calls)

     Called by c_bands:
     init_us_2    :      5.00s CPU      5.10s WALL (    3990 calls)
     cegterg      :    257.35s CPU    261.32s WALL (    1890 calls)

     Called by sum_band:
     sum_band:bec :      0.07s CPU      0.07s WALL (    1890 calls)
     addusdens    :      6.51s CPU      7.31s WALL (      27 calls)

     Called by *egterg:
     h_psi        :    186.73s CPU    189.96s WALL (    6548 calls)
     s_psi        :      7.27s CPU      7.38s WALL (    6548 calls)
     g_psi        :      1.42s CPU      1.43s WALL (    4588 calls)
     cdiaghg      :     19.38s CPU     19.57s WALL (    6478 calls)

     Called by h_psi:
     add_vuspsi   :      7.04s CPU      7.15s WALL (    6548 calls)

     General routines
     calbec       :     13.14s CPU     13.38s WALL (    8788 calls)
     fft          :      1.05s CPU      1.06s WALL (     902 calls)
     ffts         :      0.08s CPU      0.08s WALL (     110 calls)
     fftw         :    170.26s CPU    173.29s WALL (  456298 calls)
     interpolate  :      0.26s CPU      0.27s WALL (     110 calls)
     davcio       :      0.09s CPU      0.58s WALL (      70 calls)
 
     Parallel routines
     fft_scatter  :     62.13s CPU     63.57s WALL (  457310 calls)

     PAW routines
     PAW_pot      :     11.03s CPU     11.45s WALL (      28 calls)
     PAW_symme    :      0.04s CPU      0.04s WALL (      55 calls)
 
     PWSCF        :  5m54.43s CPU     6m 2.63s WALL

 
   This run was terminated on:  23:17:42  26Oct2020            

=------------------------------------------------------------------------------=
   JOB DONE.
=------------------------------------------------------------------------------=
