
     Program PWSCF v.6.5 starts on 23Nov2020 at 17: 7:16 

     This program is part of the open-source Quantum ESPRESSO suite
     for quantum simulation of materials; please cite
         "P. Giannozzi et al., J. Phys.:Condens. Matter 21 395502 (2009);
         "P. Giannozzi et al., J. Phys.:Condens. Matter 29 465901 (2017);
          URL http://www.quantum-espresso.org", 
     in publications or presentations arising from this work. More details at
     http://www.quantum-espresso.org/quote

     Parallel version (MPI & OpenMP), running on      24 processor cores
     Number of MPI processes:                24
     Threads/MPI process:                     1

     MPI processes distributed on     1 nodes
     R & G space division:  proc/nbgrp/npool/nimage =      24
     Reading input from X5P2/300.in

     Current dimensions of program PWSCF are:
     Max number of different atomic species (ntypx) = 10
     Max number of k-points (npk) =  40000
     Max angular momentum in pseudopotentials (lmaxx) =  3

     IMPORTANT: XC functional enforced from input :
     Exchange-correlation= PBE
                           (   1   4   3   4   0   0   0)
     Any further DFT definition will be discarded
     Please, verify this is what you really want

               file Fe.pbe-spn-kjpaw_psl.0.2.1.UPF: wavefunction(s)  3D renormalized

     Subspace diagonalization in iterative solution of the eigenvalue problem:
     one sub-group per band group will be used
     scalapack distributed-memory algorithm (size of sub-group:  4*  4 procs)

     Message from routine setup:
     using ibrav=0 with symmetry is DISCOURAGED, use correct ibrav instead
 
     Parallelization info
     --------------------
     sticks:   dense  smooth     PW     G-vecs:    dense   smooth      PW
     Min         288     164     45                14450     6236     905
     Max         290     165     46                14453     6239     906
     Sum        6937    3951   1097               346835   149683   21737
 


     bravais-lattice index     =            0
     lattice parameter (alat)  =      12.3840  a.u.
     unit-cell volume          =     669.2381 (a.u.)^3
     number of atoms/cell      =           10
     number of atomic types    =            2
     number of electrons       =       138.00
     number of Kohn-Sham states=           83
     kinetic-energy cutoff     =     140.0000  Ry
     charge density cutoff     =     980.0000  Ry
     convergence threshold     =      2.0E-09
     mixing beta               =       0.4000
     number of iterations used =            8  plain     mixing
     Exchange-correlation= PBE
                           (   1   4   3   4   0   0   0)
     nstep                     =           50


     celldm(1)=  12.383961  celldm(2)=   0.000000  celldm(3)=   0.000000
     celldm(4)=   0.000000  celldm(5)=   0.000000  celldm(6)=   0.000000

     crystal axes: (cart. coord. in units of alat)
               a(1) = (   1.000000   0.000000   0.000000 )  
               a(2) = (   0.000000   0.579278   0.000000 )  
               a(3) = (   0.000000   0.000000   0.608296 )  

     reciprocal axes: (cart. coord. in units 2 pi/alat)
               b(1) = (  1.000000  0.000000  0.000000 )  
               b(2) = (  0.000000  1.726286  0.000000 )  
               b(3) = (  0.000000  0.000000  1.643937 )  


     PseudoPot. # 1 for Fe read from file:
     pseudo/Fe.pbe-spn-kjpaw_psl.0.2.1.UPF
     MD5 check sum: e86618425769142926afa95317d90200
     Pseudo is Projector augmented-wave + core cor, Zval = 16.0
     Generated using "atomic" code by A. Dal Corso v.5.0.99 svn rev. 10869
     Shape of augmentation charge: PSQ
     Using radial grid of 1191 points,  6 beta functions with: 
                l(1) =   0
                l(2) =   0
                l(3) =   1
                l(4) =   1
                l(5) =   2
                l(6) =   2
     Q(r) pseudized with 0 coefficients 


     PseudoPot. # 2 for N  read from file:
     pseudo/N.pbe-n-radius_5.UPF
     MD5 check sum: 16739722b17309cd8fe442a2ace49922
     Pseudo is Ultrasoft + core correction, Zval =  5.0
     Generated using "atomic" code by A. Dal Corso v.5.1
     Using radial grid of 1085 points,  4 beta functions with: 
                l(1) =   0
                l(2) =   0
                l(3) =   1
                l(4) =   1
     Q(r) pseudized with 0 coefficients 


     atomic species   valence    mass     pseudopotential
        Fe            16.00    55.84500     Fe( 1.00)
        N              5.00    14.00650     N ( 1.00)

      8 Sym. Ops., with inversion, found ( 4 have fractional translation)


                                    s                        frac. trans.

      isym =  1     identity                                     

 cryst.   s( 1) = (     1          0          0      )
                  (     0          1          0      )
                  (     0          0          1      )

 cart.    s( 1) = (  1.0000000  0.0000000  0.0000000 )
                  (  0.0000000  1.0000000  0.0000000 )
                  (  0.0000000  0.0000000  1.0000000 )


      isym =  2     180 deg rotation - cart. axis [0,0,1]        

 cryst.   s( 2) = (    -1          0          0      )    f =(  0.5000000 )
                  (     0         -1          0      )       (  0.0000000 )
                  (     0          0          1      )       (  0.0000000 )

 cart.    s( 2) = ( -1.0000000  0.0000000  0.0000000 )    f =(  0.5000000 )
                  (  0.0000000 -1.0000000  0.0000000 )       (  0.0000000 )
                  (  0.0000000  0.0000000  1.0000000 )       (  0.0000000 )


      isym =  3     180 deg rotation - cart. axis [0,1,0]        

 cryst.   s( 3) = (    -1          0          0      )
                  (     0          1          0      )
                  (     0          0         -1      )

 cart.    s( 3) = ( -1.0000000  0.0000000  0.0000000 )
                  (  0.0000000  1.0000000  0.0000000 )
                  (  0.0000000  0.0000000 -1.0000000 )


      isym =  4     180 deg rotation - cart. axis [1,0,0]        

 cryst.   s( 4) = (     1          0          0      )    f =( -0.5000000 )
                  (     0         -1          0      )       (  0.0000000 )
                  (     0          0         -1      )       (  0.0000000 )

 cart.    s( 4) = (  1.0000000  0.0000000  0.0000000 )    f =( -0.5000000 )
                  (  0.0000000 -1.0000000  0.0000000 )       (  0.0000000 )
                  (  0.0000000  0.0000000 -1.0000000 )       (  0.0000000 )


      isym =  5     inversion                                    

 cryst.   s( 5) = (    -1          0          0      )
                  (     0         -1          0      )
                  (     0          0         -1      )

 cart.    s( 5) = ( -1.0000000  0.0000000  0.0000000 )
                  (  0.0000000 -1.0000000  0.0000000 )
                  (  0.0000000  0.0000000 -1.0000000 )


      isym =  6     inv. 180 deg rotation - cart. axis [0,0,1]   

 cryst.   s( 6) = (     1          0          0      )    f =( -0.5000000 )
                  (     0          1          0      )       (  0.0000000 )
                  (     0          0         -1      )       (  0.0000000 )

 cart.    s( 6) = (  1.0000000  0.0000000  0.0000000 )    f =( -0.5000000 )
                  (  0.0000000  1.0000000  0.0000000 )       (  0.0000000 )
                  (  0.0000000  0.0000000 -1.0000000 )       (  0.0000000 )


      isym =  7     inv. 180 deg rotation - cart. axis [0,1,0]   

 cryst.   s( 7) = (     1          0          0      )
                  (     0         -1          0      )
                  (     0          0          1      )

 cart.    s( 7) = (  1.0000000  0.0000000  0.0000000 )
                  (  0.0000000 -1.0000000  0.0000000 )
                  (  0.0000000  0.0000000  1.0000000 )


      isym =  8     inv. 180 deg rotation - cart. axis [1,0,0]   

 cryst.   s( 8) = (    -1          0          0      )    f =(  0.5000000 )
                  (     0          1          0      )       (  0.0000000 )
                  (     0          0          1      )       (  0.0000000 )

 cart.    s( 8) = ( -1.0000000  0.0000000  0.0000000 )    f =(  0.5000000 )
                  (  0.0000000  1.0000000  0.0000000 )       (  0.0000000 )
                  (  0.0000000  0.0000000  1.0000000 )       (  0.0000000 )


   Cartesian axes

     site n.     atom                  positions (alat units)
         1           Fe  tau(   1) = (   0.2500000   0.0000000   0.2456055  )
         2           Fe  tau(   2) = (   0.7500000   0.0000000   0.3626902  )
         3           Fe  tau(   3) = (   0.2500000   0.2896391   0.5497533  )
         4           Fe  tau(   4) = (   0.7500000   0.2896391   0.0585424  )
         5           Fe  tau(   5) = (   0.0000000   0.2896391   0.3041478  )
         6           Fe  tau(   6) = (   0.5000000   0.2896391   0.3041478  )
         7           Fe  tau(   7) = (   0.0000000   0.0000000   0.0000000  )
         8           Fe  tau(   8) = (   0.5000000   0.0000000   0.0000000  )
         9           N   tau(   9) = (   0.2500000   0.2896391   0.2456055  )
        10           N   tau(  10) = (   0.7500000   0.2896391   0.3626902  )

   Crystallographic axes

     site n.     atom                  positions (cryst. coord.)
         1           Fe  tau(   1) = (  0.2500000  0.0000000  0.4037600  )
         2           Fe  tau(   2) = (  0.7500000  0.0000000  0.5962400  )
         3           Fe  tau(   3) = (  0.2500000  0.5000000  0.9037600  )
         4           Fe  tau(   4) = (  0.7500000  0.5000000  0.0962400  )
         5           Fe  tau(   5) = (  0.0000000  0.5000000  0.5000000  )
         6           Fe  tau(   6) = (  0.5000000  0.5000000  0.5000000  )
         7           Fe  tau(   7) = (  0.0000000  0.0000000  0.0000000  )
         8           Fe  tau(   8) = (  0.5000000  0.0000000  0.0000000  )
         9           N   tau(   9) = (  0.2500000  0.5000000  0.4037600  )
        10           N   tau(  10) = (  0.7500000  0.5000000  0.5962400  )

     number of k points=    75  Marzari-Vanderbilt smearing, width (Ry)=  0.0147
                       cart. coord. in units 2pi/alat
        k(    1) = (   0.0000000   0.0000000   0.0000000), wk =   0.0055556
        k(    2) = (   0.0000000   0.0000000   0.2054922), wk =   0.0111111
        k(    3) = (   0.0000000   0.0000000   0.4109844), wk =   0.0111111
        k(    4) = (   0.0000000   0.0000000   0.6164765), wk =   0.0111111
        k(    5) = (   0.0000000   0.0000000  -0.8219687), wk =   0.0055556
        k(    6) = (   0.0000000   0.1918096   0.0000000), wk =   0.0111111
        k(    7) = (   0.0000000   0.1918096   0.2054922), wk =   0.0222222
        k(    8) = (   0.0000000   0.1918096   0.4109844), wk =   0.0222222
        k(    9) = (   0.0000000   0.1918096   0.6164765), wk =   0.0222222
        k(   10) = (   0.0000000   0.1918096  -0.8219687), wk =   0.0111111
        k(   11) = (   0.0000000   0.3836191   0.0000000), wk =   0.0111111
        k(   12) = (   0.0000000   0.3836191   0.2054922), wk =   0.0222222
        k(   13) = (   0.0000000   0.3836191   0.4109844), wk =   0.0222222
        k(   14) = (   0.0000000   0.3836191   0.6164765), wk =   0.0222222
        k(   15) = (   0.0000000   0.3836191  -0.8219687), wk =   0.0111111
        k(   16) = (   0.0000000   0.5754287   0.0000000), wk =   0.0111111
        k(   17) = (   0.0000000   0.5754287   0.2054922), wk =   0.0222222
        k(   18) = (   0.0000000   0.5754287   0.4109844), wk =   0.0222222
        k(   19) = (   0.0000000   0.5754287   0.6164765), wk =   0.0222222
        k(   20) = (   0.0000000   0.5754287  -0.8219687), wk =   0.0111111
        k(   21) = (   0.0000000   0.7672383   0.0000000), wk =   0.0111111
        k(   22) = (   0.0000000   0.7672383   0.2054922), wk =   0.0222222
        k(   23) = (   0.0000000   0.7672383   0.4109844), wk =   0.0222222
        k(   24) = (   0.0000000   0.7672383   0.6164765), wk =   0.0222222
        k(   25) = (   0.0000000   0.7672383  -0.8219687), wk =   0.0111111
        k(   26) = (   0.2000000   0.0000000   0.0000000), wk =   0.0111111
        k(   27) = (   0.2000000   0.0000000   0.2054922), wk =   0.0222222
        k(   28) = (   0.2000000   0.0000000   0.4109844), wk =   0.0222222
        k(   29) = (   0.2000000   0.0000000   0.6164765), wk =   0.0222222
        k(   30) = (   0.2000000   0.0000000  -0.8219687), wk =   0.0111111
        k(   31) = (   0.2000000   0.1918096   0.0000000), wk =   0.0222222
        k(   32) = (   0.2000000   0.1918096   0.2054922), wk =   0.0444444
        k(   33) = (   0.2000000   0.1918096   0.4109844), wk =   0.0444444
        k(   34) = (   0.2000000   0.1918096   0.6164765), wk =   0.0444444
        k(   35) = (   0.2000000   0.1918096  -0.8219687), wk =   0.0222222
        k(   36) = (   0.2000000   0.3836191   0.0000000), wk =   0.0222222
        k(   37) = (   0.2000000   0.3836191   0.2054922), wk =   0.0444444
        k(   38) = (   0.2000000   0.3836191   0.4109844), wk =   0.0444444
        k(   39) = (   0.2000000   0.3836191   0.6164765), wk =   0.0444444
        k(   40) = (   0.2000000   0.3836191  -0.8219687), wk =   0.0222222
        k(   41) = (   0.2000000   0.5754287   0.0000000), wk =   0.0222222
        k(   42) = (   0.2000000   0.5754287   0.2054922), wk =   0.0444444
        k(   43) = (   0.2000000   0.5754287   0.4109844), wk =   0.0444444
        k(   44) = (   0.2000000   0.5754287   0.6164765), wk =   0.0444444
        k(   45) = (   0.2000000   0.5754287  -0.8219687), wk =   0.0222222
        k(   46) = (   0.2000000   0.7672383   0.0000000), wk =   0.0222222
        k(   47) = (   0.2000000   0.7672383   0.2054922), wk =   0.0444444
        k(   48) = (   0.2000000   0.7672383   0.4109844), wk =   0.0444444
        k(   49) = (   0.2000000   0.7672383   0.6164765), wk =   0.0444444
        k(   50) = (   0.2000000   0.7672383  -0.8219687), wk =   0.0222222
        k(   51) = (   0.4000000   0.0000000   0.0000000), wk =   0.0111111
        k(   52) = (   0.4000000   0.0000000   0.2054922), wk =   0.0222222
        k(   53) = (   0.4000000   0.0000000   0.4109844), wk =   0.0222222
        k(   54) = (   0.4000000   0.0000000   0.6164765), wk =   0.0222222
        k(   55) = (   0.4000000   0.0000000  -0.8219687), wk =   0.0111111
        k(   56) = (   0.4000000   0.1918096   0.0000000), wk =   0.0222222
        k(   57) = (   0.4000000   0.1918096   0.2054922), wk =   0.0444444
        k(   58) = (   0.4000000   0.1918096   0.4109844), wk =   0.0444444
        k(   59) = (   0.4000000   0.1918096   0.6164765), wk =   0.0444444
        k(   60) = (   0.4000000   0.1918096  -0.8219687), wk =   0.0222222
        k(   61) = (   0.4000000   0.3836191   0.0000000), wk =   0.0222222
        k(   62) = (   0.4000000   0.3836191   0.2054922), wk =   0.0444444
        k(   63) = (   0.4000000   0.3836191   0.4109844), wk =   0.0444444
        k(   64) = (   0.4000000   0.3836191   0.6164765), wk =   0.0444444
        k(   65) = (   0.4000000   0.3836191  -0.8219687), wk =   0.0222222
        k(   66) = (   0.4000000   0.5754287   0.0000000), wk =   0.0222222
        k(   67) = (   0.4000000   0.5754287   0.2054922), wk =   0.0444444
        k(   68) = (   0.4000000   0.5754287   0.4109844), wk =   0.0444444
        k(   69) = (   0.4000000   0.5754287   0.6164765), wk =   0.0444444
        k(   70) = (   0.4000000   0.5754287  -0.8219687), wk =   0.0222222
        k(   71) = (   0.4000000   0.7672383   0.0000000), wk =   0.0222222
        k(   72) = (   0.4000000   0.7672383   0.2054922), wk =   0.0444444
        k(   73) = (   0.4000000   0.7672383   0.4109844), wk =   0.0444444
        k(   74) = (   0.4000000   0.7672383   0.6164765), wk =   0.0444444
        k(   75) = (   0.4000000   0.7672383  -0.8219687), wk =   0.0222222

                       cryst. coord.
        k(    1) = (   0.0000000   0.0000000   0.0000000), wk =   0.0055556
        k(    2) = (   0.0000000   0.0000000   0.1250000), wk =   0.0111111
        k(    3) = (   0.0000000   0.0000000   0.2500000), wk =   0.0111111
        k(    4) = (   0.0000000   0.0000000   0.3750000), wk =   0.0111111
        k(    5) = (   0.0000000   0.0000000  -0.5000000), wk =   0.0055556
        k(    6) = (   0.0000000   0.1111111   0.0000000), wk =   0.0111111
        k(    7) = (   0.0000000   0.1111111   0.1250000), wk =   0.0222222
        k(    8) = (   0.0000000   0.1111111   0.2500000), wk =   0.0222222
        k(    9) = (   0.0000000   0.1111111   0.3750000), wk =   0.0222222
        k(   10) = (   0.0000000   0.1111111  -0.5000000), wk =   0.0111111
        k(   11) = (   0.0000000   0.2222222   0.0000000), wk =   0.0111111
        k(   12) = (   0.0000000   0.2222222   0.1250000), wk =   0.0222222
        k(   13) = (   0.0000000   0.2222222   0.2500000), wk =   0.0222222
        k(   14) = (   0.0000000   0.2222222   0.3750000), wk =   0.0222222
        k(   15) = (   0.0000000   0.2222222  -0.5000000), wk =   0.0111111
        k(   16) = (   0.0000000   0.3333333   0.0000000), wk =   0.0111111
        k(   17) = (   0.0000000   0.3333333   0.1250000), wk =   0.0222222
        k(   18) = (   0.0000000   0.3333333   0.2500000), wk =   0.0222222
        k(   19) = (   0.0000000   0.3333333   0.3750000), wk =   0.0222222
        k(   20) = (   0.0000000   0.3333333  -0.5000000), wk =   0.0111111
        k(   21) = (   0.0000000   0.4444444   0.0000000), wk =   0.0111111
        k(   22) = (   0.0000000   0.4444444   0.1250000), wk =   0.0222222
        k(   23) = (   0.0000000   0.4444444   0.2500000), wk =   0.0222222
        k(   24) = (   0.0000000   0.4444444   0.3750000), wk =   0.0222222
        k(   25) = (   0.0000000   0.4444444  -0.5000000), wk =   0.0111111
        k(   26) = (   0.2000000   0.0000000   0.0000000), wk =   0.0111111
        k(   27) = (   0.2000000   0.0000000   0.1250000), wk =   0.0222222
        k(   28) = (   0.2000000   0.0000000   0.2500000), wk =   0.0222222
        k(   29) = (   0.2000000   0.0000000   0.3750000), wk =   0.0222222
        k(   30) = (   0.2000000   0.0000000  -0.5000000), wk =   0.0111111
        k(   31) = (   0.2000000   0.1111111   0.0000000), wk =   0.0222222
        k(   32) = (   0.2000000   0.1111111   0.1250000), wk =   0.0444444
        k(   33) = (   0.2000000   0.1111111   0.2500000), wk =   0.0444444
        k(   34) = (   0.2000000   0.1111111   0.3750000), wk =   0.0444444
        k(   35) = (   0.2000000   0.1111111  -0.5000000), wk =   0.0222222
        k(   36) = (   0.2000000   0.2222222   0.0000000), wk =   0.0222222
        k(   37) = (   0.2000000   0.2222222   0.1250000), wk =   0.0444444
        k(   38) = (   0.2000000   0.2222222   0.2500000), wk =   0.0444444
        k(   39) = (   0.2000000   0.2222222   0.3750000), wk =   0.0444444
        k(   40) = (   0.2000000   0.2222222  -0.5000000), wk =   0.0222222
        k(   41) = (   0.2000000   0.3333333   0.0000000), wk =   0.0222222
        k(   42) = (   0.2000000   0.3333333   0.1250000), wk =   0.0444444
        k(   43) = (   0.2000000   0.3333333   0.2500000), wk =   0.0444444
        k(   44) = (   0.2000000   0.3333333   0.3750000), wk =   0.0444444
        k(   45) = (   0.2000000   0.3333333  -0.5000000), wk =   0.0222222
        k(   46) = (   0.2000000   0.4444444   0.0000000), wk =   0.0222222
        k(   47) = (   0.2000000   0.4444444   0.1250000), wk =   0.0444444
        k(   48) = (   0.2000000   0.4444444   0.2500000), wk =   0.0444444
        k(   49) = (   0.2000000   0.4444444   0.3750000), wk =   0.0444444
        k(   50) = (   0.2000000   0.4444444  -0.5000000), wk =   0.0222222
        k(   51) = (   0.4000000   0.0000000   0.0000000), wk =   0.0111111
        k(   52) = (   0.4000000   0.0000000   0.1250000), wk =   0.0222222
        k(   53) = (   0.4000000   0.0000000   0.2500000), wk =   0.0222222
        k(   54) = (   0.4000000   0.0000000   0.3750000), wk =   0.0222222
        k(   55) = (   0.4000000   0.0000000  -0.5000000), wk =   0.0111111
        k(   56) = (   0.4000000   0.1111111   0.0000000), wk =   0.0222222
        k(   57) = (   0.4000000   0.1111111   0.1250000), wk =   0.0444444
        k(   58) = (   0.4000000   0.1111111   0.2500000), wk =   0.0444444
        k(   59) = (   0.4000000   0.1111111   0.3750000), wk =   0.0444444
        k(   60) = (   0.4000000   0.1111111  -0.5000000), wk =   0.0222222
        k(   61) = (   0.4000000   0.2222222   0.0000000), wk =   0.0222222
        k(   62) = (   0.4000000   0.2222222   0.1250000), wk =   0.0444444
        k(   63) = (   0.4000000   0.2222222   0.2500000), wk =   0.0444444
        k(   64) = (   0.4000000   0.2222222   0.3750000), wk =   0.0444444
        k(   65) = (   0.4000000   0.2222222  -0.5000000), wk =   0.0222222
        k(   66) = (   0.4000000   0.3333333   0.0000000), wk =   0.0222222
        k(   67) = (   0.4000000   0.3333333   0.1250000), wk =   0.0444444
        k(   68) = (   0.4000000   0.3333333   0.2500000), wk =   0.0444444
        k(   69) = (   0.4000000   0.3333333   0.3750000), wk =   0.0444444
        k(   70) = (   0.4000000   0.3333333  -0.5000000), wk =   0.0222222
        k(   71) = (   0.4000000   0.4444444   0.0000000), wk =   0.0222222
        k(   72) = (   0.4000000   0.4444444   0.1250000), wk =   0.0444444
        k(   73) = (   0.4000000   0.4444444   0.2500000), wk =   0.0444444
        k(   74) = (   0.4000000   0.4444444   0.3750000), wk =   0.0444444
        k(   75) = (   0.4000000   0.4444444  -0.5000000), wk =   0.0222222

     Dense  grid:   346835 G-vectors     FFT dimensions: ( 128,  72,  75)

     Smooth grid:   149683 G-vectors     FFT dimensions: (  96,  60,  60)

     Dynamical RAM for                 wfc:       0.99 MB

     Dynamical RAM for     wfc (w. buffer):      75.08 MB

     Dynamical RAM for           str. fact:       0.44 MB

     Dynamical RAM for           local pot:       0.00 MB

     Dynamical RAM for          nlocal pot:       1.90 MB

     Dynamical RAM for                qrad:      19.78 MB

     Dynamical RAM for          rho,v,vnew:       1.51 MB

     Dynamical RAM for               rhoin:       0.50 MB

     Dynamical RAM for            rho*nmix:       3.53 MB

     Dynamical RAM for           G-vectors:       0.87 MB

     Dynamical RAM for          h,s,v(r/c):       0.32 MB

     Dynamical RAM for          <psi|beta>:       0.20 MB

     Dynamical RAM for                 psi:       3.95 MB

     Dynamical RAM for                hpsi:       3.95 MB

     Dynamical RAM for                spsi:       3.95 MB

     Dynamical RAM for      wfcinit/wfcrot:       2.95 MB

     Dynamical RAM for           addusdens:      42.77 MB

     Dynamical RAM for          addusforce:      47.33 MB

     Dynamical RAM for         addusstress:      44.32 MB

     Estimated static dynamical RAM per process >     105.68 MB

     Estimated max dynamical RAM per process >     153.02 MB

     Estimated total dynamical RAM >       3.59 GB

     Check: negative core charge=   -0.000010

     Initial potential from superposition of free atoms

     starting charge  137.99648, renormalised to  138.00000
     Starting wfcs are  112 randomized atomic wfcs
     Checking if some PAW data can be deallocated... 
       PAW data deallocated on    4 nodes for type:  1

     total cpu time spent up to now is       11.3 secs

     Self-consistent Calculation

     iteration #  1     ecut=   140.00 Ry     beta= 0.40
     Davidson diagonalization with overlap
     ethr =  1.00E-02,  avg # of iterations =  2.4

     Threshold (ethr) on eigenvalues was too large:
     Diagonalizing with lowered threshold

     Davidson diagonalization with overlap
     ethr =  7.48E-04,  avg # of iterations =  3.8

     total cpu time spent up to now is       49.2 secs

     total energy              =   -2673.79664598 Ry
     Harris-Foulkes estimate   =   -2674.29445317 Ry
     estimated scf accuracy    <       0.89391602 Ry

     iteration #  2     ecut=   140.00 Ry     beta= 0.40
     Davidson diagonalization with overlap
     ethr =  6.48E-04,  avg # of iterations =  3.9

     total cpu time spent up to now is       73.8 secs

     total energy              =   -2673.12243176 Ry
     Harris-Foulkes estimate   =   -2674.78282048 Ry
     estimated scf accuracy    <      16.65989994 Ry

     iteration #  3     ecut=   140.00 Ry     beta= 0.40
     Davidson diagonalization with overlap
     ethr =  6.48E-04,  avg # of iterations =  3.5

     total cpu time spent up to now is       95.4 secs

     total energy              =   -2673.84911496 Ry
     Harris-Foulkes estimate   =   -2674.37874649 Ry
     estimated scf accuracy    <       5.11180847 Ry

     iteration #  4     ecut=   140.00 Ry     beta= 0.40
     Davidson diagonalization with overlap
     ethr =  6.48E-04,  avg # of iterations =  2.1

     total cpu time spent up to now is      113.8 secs

     total energy              =   -2673.88171461 Ry
     Harris-Foulkes estimate   =   -2674.49782638 Ry
     estimated scf accuracy    <       9.35755178 Ry

     iteration #  5     ecut=   140.00 Ry     beta= 0.40
     Davidson diagonalization with overlap
     ethr =  6.48E-04,  avg # of iterations =  2.0

     total cpu time spent up to now is      131.1 secs

     total energy              =   -2674.11313299 Ry
     Harris-Foulkes estimate   =   -2674.16163127 Ry
     estimated scf accuracy    <       0.62952904 Ry

     iteration #  6     ecut=   140.00 Ry     beta= 0.40
     Davidson diagonalization with overlap
     ethr =  4.56E-04,  avg # of iterations =  1.0

     total cpu time spent up to now is      146.5 secs

     total energy              =   -2674.13755464 Ry
     Harris-Foulkes estimate   =   -2674.15454982 Ry
     estimated scf accuracy    <       0.28251377 Ry

     iteration #  7     ecut=   140.00 Ry     beta= 0.40
     Davidson diagonalization with overlap
     ethr =  2.05E-04,  avg # of iterations =  1.0

     total cpu time spent up to now is      162.0 secs

     total energy              =   -2674.14410431 Ry
     Harris-Foulkes estimate   =   -2674.14543501 Ry
     estimated scf accuracy    <       0.00859205 Ry

     iteration #  8     ecut=   140.00 Ry     beta= 0.40
     Davidson diagonalization with overlap
     ethr =  6.23E-06,  avg # of iterations =  4.4

     total cpu time spent up to now is      184.2 secs

     total energy              =   -2674.14521975 Ry
     Harris-Foulkes estimate   =   -2674.14552923 Ry
     estimated scf accuracy    <       0.00489310 Ry

     iteration #  9     ecut=   140.00 Ry     beta= 0.40
     Davidson diagonalization with overlap
     ethr =  3.55E-06,  avg # of iterations =  1.0

     total cpu time spent up to now is      199.7 secs

     total energy              =   -2674.14541075 Ry
     Harris-Foulkes estimate   =   -2674.14545655 Ry
     estimated scf accuracy    <       0.00068785 Ry

     iteration # 10     ecut=   140.00 Ry     beta= 0.40
     Davidson diagonalization with overlap
     ethr =  4.98E-07,  avg # of iterations =  2.5

     total cpu time spent up to now is      217.3 secs

     total energy              =   -2674.14546278 Ry
     Harris-Foulkes estimate   =   -2674.14546807 Ry
     estimated scf accuracy    <       0.00009262 Ry

     iteration # 11     ecut=   140.00 Ry     beta= 0.40
     Davidson diagonalization with overlap
     ethr =  6.71E-08,  avg # of iterations =  3.5

     total cpu time spent up to now is      241.2 secs

     total energy              =   -2674.14548806 Ry
     Harris-Foulkes estimate   =   -2674.14548846 Ry
     estimated scf accuracy    <       0.00000259 Ry

     iteration # 12     ecut=   140.00 Ry     beta= 0.40
     Davidson diagonalization with overlap
     ethr =  1.88E-09,  avg # of iterations =  2.9

     total cpu time spent up to now is      263.2 secs

     total energy              =   -2674.14548864 Ry
     Harris-Foulkes estimate   =   -2674.14548870 Ry
     estimated scf accuracy    <       0.00000041 Ry

     iteration # 13     ecut=   140.00 Ry     beta= 0.40
     Davidson diagonalization with overlap
     ethr =  2.95E-10,  avg # of iterations =  1.7

     total cpu time spent up to now is      280.5 secs

     total energy              =   -2674.14548868 Ry
     Harris-Foulkes estimate   =   -2674.14548869 Ry
     estimated scf accuracy    <       0.00000022 Ry

     iteration # 14     ecut=   140.00 Ry     beta= 0.40
     Davidson diagonalization with overlap
     ethr =  1.62E-10,  avg # of iterations =  1.0

     total cpu time spent up to now is      296.1 secs

     total energy              =   -2674.14548869 Ry
     Harris-Foulkes estimate   =   -2674.14548869 Ry
     estimated scf accuracy    <          8.6E-09 Ry

     iteration # 15     ecut=   140.00 Ry     beta= 0.40
     Davidson diagonalization with overlap
     ethr =  6.25E-12,  avg # of iterations =  3.8

     total cpu time spent up to now is      327.9 secs

     total energy              =   -2674.14548870 Ry
     Harris-Foulkes estimate   =   -2674.14548870 Ry
     estimated scf accuracy    <          3.7E-09 Ry

     iteration # 16     ecut=   140.00 Ry     beta= 0.40
     Davidson diagonalization with overlap
     ethr =  2.67E-12,  avg # of iterations =  1.0

     total cpu time spent up to now is      343.5 secs

     total energy              =   -2674.14548870 Ry
     Harris-Foulkes estimate   =   -2674.14548870 Ry
     estimated scf accuracy    <          5.5E-09 Ry

     iteration # 17     ecut=   140.00 Ry     beta= 0.40
     Davidson diagonalization with overlap
     ethr =  2.67E-12,  avg # of iterations =  1.0

     total cpu time spent up to now is      359.7 secs

     End of self-consistent calculation

          k = 0.0000 0.0000 0.0000 ( 18781 PWs)   bands (ev):

   -68.8295 -68.8199 -68.6381 -68.6380 -68.4756 -68.4723 -68.1953 -68.1904
   -35.5780 -35.5562 -35.0349 -34.9911 -34.8776 -34.7715 -34.7693 -34.7307
   -34.7218 -34.6606 -34.6349 -34.6265 -34.5901 -34.5442 -34.5117 -34.4880
   -34.4880 -34.4138 -34.3466 -34.3265 -34.1804 -34.1688 -34.1644 -34.1368
     0.2719   1.5675   9.8480  11.1174  11.6803  11.9047  12.9342  13.0337
    13.7667  14.1150  14.4031  14.5060  14.5538  14.6418  14.6758  14.7173
    15.6963  15.7502  15.7649  15.8611  16.1097  16.2703  16.7719  16.8776
    17.1601  17.4367  17.6091  17.6364  17.6971  17.9447  17.9478  18.1396
    18.2025  18.3121  18.5079  18.6828  18.7148  18.8044  18.9663  18.9721
    19.0750  19.0830  19.1127  19.2694  19.6449  19.7020  19.8192  19.8935
    21.1025  22.0298  23.0995

     occupation numbers 
     1.0000   1.0000   1.0000   1.0000   1.0000   1.0000   1.0000   1.0000
     1.0000   1.0000   1.0000   1.0000   1.0000   1.0000   1.0000   1.0000
     1.0000   1.0000   1.0000   1.0000   1.0000   1.0000   1.0000   1.0000
     1.0000   1.0000   1.0000   1.0000   1.0000   1.0000   1.0000   1.0000
     1.0000   1.0000   1.0000   1.0000   1.0000   1.0000   1.0000   1.0000
     1.0000   1.0000   1.0000   1.0000   1.0000   1.0000   1.0000   1.0000
     1.0000   1.0000   1.0000   1.0000   1.0000   1.0000   1.0000   1.0000
     1.0000   1.0000   1.0000   1.0000   1.0000   1.0003   1.0003   1.0152
     1.0355   1.0809   0.7953   0.2055   0.1391   0.0362   0.0012   0.0010
     0.0001   0.0000   0.0000   0.0000   0.0000   0.0000   0.0000   0.0000
     0.0000   0.0000   0.0000

          k = 0.0000 0.0000 0.2055 ( 18751 PWs)   bands (ev):

   -68.8292 -68.8199 -68.6392 -68.6368 -68.4761 -68.4721 -68.1953 -68.1904
   -35.5804 -35.5554 -35.0338 -34.9907 -34.8699 -34.7732 -34.7664 -34.7359
   -34.7241 -34.6601 -34.6318 -34.6264 -34.5929 -34.5479 -34.5138 -34.4909
   -34.4874 -34.4078 -34.3459 -34.3274 -34.1813 -34.1692 -34.1638 -34.1369
     0.3206   1.6156   9.8477  11.0043  11.6474  11.7142  12.7696  12.9211
    13.6619  14.0808  14.4910  14.5893  14.7204  14.7617  14.8051  14.9290
    15.7355  15.7714  15.7731  15.8536  16.1023  16.2997  16.6971  16.9336
    16.9707  17.1625  17.7048  17.7170  17.7705  17.8335  18.1193  18.2110
    18.2522  18.2541  18.5154  18.6136  18.6895  18.8212  18.9318  18.9495
    18.9864  19.0458  19.0798  19.2090  19.5516  19.6965  19.7381  19.8551
    21.4047  21.9173  23.0422

     occupation numbers 
     1.0000   1.0000   1.0000   1.0000   1.0000   1.0000   1.0000   1.0000
     1.0000   1.0000   1.0000   1.0000   1.0000   1.0000   1.0000   1.0000
     1.0000   1.0000   1.0000   1.0000   1.0000   1.0000   1.0000   1.0000
     1.0000   1.0000   1.0000   1.0000   1.0000   1.0000   1.0000   1.0000
     1.0000   1.0000   1.0000   1.0000   1.0000   1.0000   1.0000   1.0000
     1.0000   1.0000   1.0000   1.0000   1.0000   1.0000   1.0000   1.0000
     1.0000   1.0000   1.0000   1.0000   1.0000   1.0000   1.0000   1.0000
     1.0000   1.0000   1.0000   1.0000   1.0000   1.0000   1.0110   1.0390
     1.0579   1.0588   0.7693   0.4093   0.1903   0.0269   0.0028   0.0018
     0.0007   0.0001   0.0001   0.0000   0.0000   0.0000   0.0000   0.0000
     0.0000   0.0000   0.0000

          k = 0.0000 0.0000 0.4110 ( 18736 PWs)   bands (ev):

   -68.8286 -68.8198 -68.6400 -68.6357 -68.4771 -68.4719 -68.1954 -68.1906
   -35.5860 -35.5537 -35.0310 -34.9898 -34.8488 -34.7765 -34.7601 -34.7484
   -34.7310 -34.6590 -34.6259 -34.6246 -34.6000 -34.5568 -34.5187 -34.4971
   -34.4865 -34.3935 -34.3449 -34.3306 -34.1831 -34.1704 -34.1621 -34.1372
     0.4425   1.7363   9.8459  10.6290  11.1850  11.5710  12.7071  12.8152
    13.3993  14.3036  14.5886  14.8313  14.8824  15.0850  15.1434  15.3246
    15.7836  15.8156  15.8501  15.8806  16.0598  16.3832  16.4566  16.6467
    16.7864  17.0996  17.5132  17.6490  17.7890  18.0228  18.0833  18.1707
    18.2014  18.4008  18.4153  18.4773  18.5809  18.7350  18.8500  18.8615
    18.8967  18.9436  19.0348  19.0799  19.5619  19.5650  19.6831  19.9347
    21.7766  22.2025  22.2774

     occupation numbers 
     1.0000   1.0000   1.0000   1.0000   1.0000   1.0000   1.0000   1.0000
     1.0000   1.0000   1.0000   1.0000   1.0000   1.0000   1.0000   1.0000
     1.0000   1.0000   1.0000   1.0000   1.0000   1.0000   1.0000   1.0000
     1.0000   1.0000   1.0000   1.0000   1.0000   1.0000   1.0000   1.0000
     1.0000   1.0000   1.0000   1.0000   1.0000   1.0000   1.0000   1.0000
     1.0000   1.0000   1.0000   1.0000   1.0000   1.0000   1.0000   1.0000
     1.0000   1.0000   1.0000   1.0000   1.0000   1.0000   1.0000   1.0000
     1.0000   1.0000   1.0000   1.0000   1.0000   1.0017   1.0058   1.0238
     1.0350   1.0474   1.0280   0.8914   0.5273   0.1061   0.0158   0.0126
     0.0061   0.0021   0.0002   0.0001   0.0000   0.0000   0.0000   0.0000
     0.0000   0.0000   0.0000

          k = 0.0000 0.0000 0.6165 ( 18706 PWs)   bands (ev):

   -68.8280 -68.8198 -68.6405 -68.6349 -68.4780 -68.4717 -68.1954 -68.1908
   -35.5916 -35.5520 -35.0282 -34.9889 -34.8202 -34.7775 -34.7624 -34.7610
   -34.7371 -34.6579 -34.6254 -34.6177 -34.6083 -34.5650 -34.5234 -34.5027
   -34.4859 -34.3780 -34.3450 -34.3362 -34.1843 -34.1715 -34.1603 -34.1375
     0.5711   1.8641   9.8426  10.2147  10.6309  11.4985  12.5381  13.2060
    13.2842  14.4928  14.6634  15.0332  15.1382  15.4528  15.4576  15.5781
    15.7558  15.8625  15.9111  15.9791  16.1840  16.1888  16.3297  16.4105
    16.4669  17.0727  17.3426  17.5331  17.8193  17.8834  17.9085  18.0053
    18.2566  18.2646  18.3311  18.3974  18.4293  18.5742  18.6924  18.7128
    18.7920  19.0106  19.0217  19.0818  19.6562  19.6694  19.7818  20.0067
    21.3609  22.0106  22.7244

     occupation numbers 
     1.0000   1.0000   1.0000   1.0000   1.0000   1.0000   1.0000   1.0000
     1.0000   1.0000   1.0000   1.0000   1.0000   1.0000   1.0000   1.0000
     1.0000   1.0000   1.0000   1.0000   1.0000   1.0000   1.0000   1.0000
     1.0000   1.0000   1.0000   1.0000   1.0000   1.0000   1.0000   1.0000
     1.0000   1.0000   1.0000   1.0000   1.0000   1.0000   1.0000   1.0000
     1.0000   1.0000   1.0000   1.0000   1.0000   1.0000   1.0000   1.0000
     1.0000   1.0000   1.0000   1.0000   1.0000   1.0000   1.0000   1.0000
     1.0000   1.0000   1.0000   1.0000   1.0000   1.0000   1.0001   1.0012
     1.0600   1.0636   1.0833   1.0512   1.0047   0.5520   0.1837   0.1427
     0.0446   0.0004   0.0003   0.0000   0.0000   0.0000   0.0000   0.0000
     0.0000   0.0000   0.0000

          k = 0.0000 0.0000-0.8220 ( 18676 PWs)   bands (ev):

   -68.8277 -68.8198 -68.6407 -68.6346 -68.4784 -68.4717 -68.1954 -68.1909
   -35.5939 -35.5512 -35.0270 -34.9886 -34.8004 -34.7741 -34.7717 -34.7717
   -34.7370 -34.6575 -34.6251 -34.6148 -34.6125 -34.5680 -34.5252 -34.5050
   -34.4857 -34.3703 -34.3454 -34.3402 -34.1846 -34.1720 -34.1595 -34.1376
     0.6266   1.9194   9.8408  10.0450  10.4052  11.4695  12.4765  13.1390
    13.7789  14.1579  14.8936  15.1112  15.3057  15.4082  15.6504  15.7326
    15.8324  15.8477  15.9326  16.0112  16.1142  16.1285  16.2381  16.4354
    16.4550  16.7796  17.4289  17.5181  17.6732  17.7190  17.8974  17.9383
    18.1472  18.2032  18.3610  18.3992  18.4862  18.4897  18.5092  18.7181
    18.7406  19.0057  19.0197  19.1533  19.6635  19.7103  19.9834  20.0348
    20.9196  22.1433  22.7963

     occupation numbers 
     1.0000   1.0000   1.0000   1.0000   1.0000   1.0000   1.0000   1.0000
     1.0000   1.0000   1.0000   1.0000   1.0000   1.0000   1.0000   1.0000
     1.0000   1.0000   1.0000   1.0000   1.0000   1.0000   1.0000   1.0000
     1.0000   1.0000   1.0000   1.0000   1.0000   1.0000   1.0000   1.0000
     1.0000   1.0000   1.0000   1.0000   1.0000   1.0000   1.0000   1.0000
     1.0000   1.0000   1.0000   1.0000   1.0000   1.0000   1.0000   1.0000
     1.0000   1.0000   1.0000   1.0000   1.0000   1.0000   1.0000   1.0000
     1.0000   1.0000   1.0000   1.0000   1.0000   1.0000   1.0001   1.0002
     1.0170   1.0358   1.0781   1.0492   0.8650   0.8543   0.7906   0.1332
     0.0981   0.0004   0.0003   0.0000   0.0000   0.0000   0.0000   0.0000
     0.0000   0.0000   0.0000

          k = 0.0000 0.1918 0.0000 ( 18769 PWs)   bands (ev):

   -68.8290 -68.8199 -68.6384 -68.6381 -68.4757 -68.4722 -68.1953 -68.1906
   -35.5820 -35.5552 -35.0303 -34.9881 -34.8736 -34.7704 -34.7680 -34.7315
   -34.7251 -34.6888 -34.6324 -34.6065 -34.5901 -34.5439 -34.5089 -34.4939
   -34.4924 -34.4116 -34.3432 -34.3286 -34.1780 -34.1660 -34.1647 -34.1407
     0.3266   1.6255   9.8308  11.1135  11.4471  11.8609  12.7994  12.8150
    13.8470  13.8821  14.4832  14.5578  14.6285  14.6876  14.8360  14.9900
    15.7270  15.7909  15.7996  15.8608  16.1242  16.2320  16.7973  16.8244
    17.1139  17.4544  17.5058  17.5531  17.7797  17.9526  17.9891  18.0633
    18.3333  18.4210  18.5203  18.6468  18.6553  18.7813  18.9143  18.9820
    19.0109  19.0311  19.0623  19.2552  19.5422  19.6399  19.8344  19.9246
    21.3550  22.0478  22.9663

     occupation numbers 
     1.0000   1.0000   1.0000   1.0000   1.0000   1.0000   1.0000   1.0000
     1.0000   1.0000   1.0000   1.0000   1.0000   1.0000   1.0000   1.0000
     1.0000   1.0000   1.0000   1.0000   1.0000   1.0000   1.0000   1.0000
     1.0000   1.0000   1.0000   1.0000   1.0000   1.0000   1.0000   1.0000
     1.0000   1.0000   1.0000   1.0000   1.0000   1.0000   1.0000   1.0000
     1.0000   1.0000   1.0000   1.0000   1.0000   1.0000   1.0000   1.0000
     1.0000   1.0000   1.0000   1.0000   1.0000   1.0000   1.0000   1.0000
     1.0000   1.0000   1.0000   1.0000   1.0000   1.0003   1.0008   1.0040
     1.0833   1.0191   0.7521   0.3021   0.2773   0.0531   0.0041   0.0008
     0.0004   0.0002   0.0001   0.0000   0.0000   0.0000   0.0000   0.0000
     0.0000   0.0000   0.0000

          k = 0.0000 0.1918 0.2055 ( 18745 PWs)   bands (ev):

   -68.8288 -68.8199 -68.6393 -68.6371 -68.4761 -68.4720 -68.1953 -68.1906
   -35.5845 -35.5545 -35.0295 -34.9875 -34.8663 -34.7737 -34.7651 -34.7387
   -34.7276 -34.6815 -34.6321 -34.6072 -34.5935 -34.5479 -34.5108 -34.4939
   -34.4918 -34.4065 -34.3429 -34.3294 -34.1788 -34.1655 -34.1648 -34.1406
     0.3752   1.6739   9.8278  10.9932  11.4173  11.6925  12.4918  12.8812
    13.6152  14.0443  14.5554  14.6320  14.7724  14.8063  14.9600  15.1205
    15.7599  15.7808  15.8128  15.8299  16.1908  16.2818  16.6568  16.8822
    16.9656  17.1911  17.5710  17.6474  17.8324  17.8351  18.0649  18.2058
    18.3721  18.3851  18.5309  18.5649  18.6396  18.7850  18.9063  18.9107
    19.0017  19.0177  19.0186  19.2239  19.4644  19.6186  19.7176  20.0389
    21.5385  21.9944  23.0766

     occupation numbers 
     1.0000   1.0000   1.0000   1.0000   1.0000   1.0000   1.0000   1.0000
     1.0000   1.0000   1.0000   1.0000   1.0000   1.0000   1.0000   1.0000
     1.0000   1.0000   1.0000   1.0000   1.0000   1.0000   1.0000   1.0000
     1.0000   1.0000   1.0000   1.0000   1.0000   1.0000   1.0000   1.0000
     1.0000   1.0000   1.0000   1.0000   1.0000   1.0000   1.0000   1.0000
     1.0000   1.0000   1.0000   1.0000   1.0000   1.0000   1.0000   1.0000
     1.0000   1.0000   1.0000   1.0000   1.0000   1.0000   1.0000   1.0000
     1.0000   1.0000   1.0000   1.0000   1.0000   1.0000   1.0041   1.0368
     1.0725   1.0632   0.7140   0.5872   0.3239   0.0500   0.0049   0.0045
     0.0005   0.0003   0.0003   0.0000   0.0000   0.0000   0.0000   0.0000
     0.0000   0.0000   0.0000

          k = 0.0000 0.1918 0.4110 ( 18721 PWs)   bands (ev):

   -68.8282 -68.8198 -68.6400 -68.6360 -68.4770 -68.4718 -68.1954 -68.1909
   -35.5904 -35.5528 -35.0276 -34.9861 -34.8461 -34.7804 -34.7590 -34.7531
   -34.7348 -34.6669 -34.6312 -34.6096 -34.6013 -34.5578 -34.5141 -34.4974
   -34.4886 -34.3939 -34.3429 -34.3324 -34.1803 -34.1660 -34.1634 -34.1406
     0.4968   1.7956   9.8195  10.6057  11.1874  11.3453  12.2728  12.9841
    13.3444  14.3011  14.6464  14.8717  14.9712  15.0838  15.2768  15.3675
    15.6816  15.8521  15.8985  15.9389  16.2206  16.3907  16.4290  16.7038
    16.7450  17.0218  17.5182  17.6305  17.6752  17.9193  18.0693  18.2532
    18.2664  18.4117  18.4793  18.5220  18.5700  18.7166  18.8136  18.8532
    18.8899  18.9616  19.0751  19.0798  19.4142  19.5746  19.6571  20.2084
    21.7481  22.3072  22.3542

     occupation numbers 
     1.0000   1.0000   1.0000   1.0000   1.0000   1.0000   1.0000   1.0000
     1.0000   1.0000   1.0000   1.0000   1.0000   1.0000   1.0000   1.0000
     1.0000   1.0000   1.0000   1.0000   1.0000   1.0000   1.0000   1.0000
     1.0000   1.0000   1.0000   1.0000   1.0000   1.0000   1.0000   1.0000
     1.0000   1.0000   1.0000   1.0000   1.0000   1.0000   1.0000   1.0000
     1.0000   1.0000   1.0000   1.0000   1.0000   1.0000   1.0000   1.0000
     1.0000   1.0000   1.0000   1.0000   1.0000   1.0000   1.0000   1.0000
     1.0000   1.0000   1.0000   1.0000   1.0000   1.0001   1.0045   1.0584
     1.0645   1.0332   0.8856   0.7462   0.5679   0.1359   0.0309   0.0148
     0.0070   0.0013   0.0001   0.0001   0.0000   0.0000   0.0000   0.0000
     0.0000   0.0000   0.0000

          k = 0.0000 0.1918 0.6165 ( 18715 PWs)   bands (ev):

   -68.8275 -68.8198 -68.6405 -68.6352 -68.4778 -68.4717 -68.1954 -68.1911
   -35.5961 -35.5511 -35.0256 -34.9849 -34.8189 -34.7850 -34.7669 -34.7605
   -34.7406 -34.6531 -34.6302 -34.6136 -34.6098 -34.5676 -34.5165 -34.5007
   -34.4866 -34.3800 -34.3437 -34.3376 -34.1811 -34.1669 -34.1615 -34.1406
     0.6250   1.9246   9.8100  10.1833  10.6414  11.2715  12.1898  13.1596
    13.4060  14.5434  14.6314  15.0931  15.1751  15.3576  15.4445  15.6387
    15.7220  15.9329  15.9564  16.1655  16.2022  16.2425  16.3834  16.3957
    16.6234  16.9140  17.2692  17.5716  17.7438  17.8514  17.8551  18.1596
    18.1926  18.2854  18.3750  18.4853  18.5163  18.5944  18.7310  18.7685
    18.7826  18.9521  19.0270  19.0544  19.4353  19.6252  19.8482  20.3717
    21.3571  21.9183  22.7991

     occupation numbers 
     1.0000   1.0000   1.0000   1.0000   1.0000   1.0000   1.0000   1.0000
     1.0000   1.0000   1.0000   1.0000   1.0000   1.0000   1.0000   1.0000
     1.0000   1.0000   1.0000   1.0000   1.0000   1.0000   1.0000   1.0000
     1.0000   1.0000   1.0000   1.0000   1.0000   1.0000   1.0000   1.0000
     1.0000   1.0000   1.0000   1.0000   1.0000   1.0000   1.0000   1.0000
     1.0000   1.0000   1.0000   1.0000   1.0000   1.0000   1.0000   1.0000
     1.0000   1.0000   1.0000   1.0000   1.0000   1.0000   1.0000   1.0000
     1.0000   1.0000   1.0000   1.0000   1.0000   1.0000   1.0000   1.0204
     1.0315   1.0725   1.0707   0.8679   0.7662   0.4773   0.1121   0.0649
     0.0520   0.0017   0.0002   0.0001   0.0000   0.0000   0.0000   0.0000
     0.0000   0.0000   0.0000

          k = 0.0000 0.1918-0.8220 ( 18698 PWs)   bands (ev):

   -68.8273 -68.8198 -68.6407 -68.6350 -68.4782 -68.4717 -68.1954 -68.1912
   -35.5985 -35.5504 -35.0247 -34.9843 -34.8004 -34.7858 -34.7732 -34.7709
   -34.7400 -34.6467 -34.6298 -34.6162 -34.6137 -34.5715 -34.5174 -34.5020
   -34.4860 -34.3731 -34.3443 -34.3410 -34.1814 -34.1672 -34.1607 -34.1406
     0.6803   1.9805   9.8057  10.0100  10.4191  11.2423  12.1555  13.0958
    13.9336  14.1519  14.8757  15.0231  15.3410  15.3678  15.6759  15.7263
    15.8213  15.8311  15.9954  16.1755  16.1762  16.2792  16.2926  16.4844
    16.6114  16.7184  17.1225  17.6597  17.6817  17.7144  17.8482  18.0200
    18.1513  18.2375  18.3477  18.3969  18.5507  18.5830  18.6541  18.7092
    18.8041  18.9229  19.0266  19.0449  19.4386  19.6914  20.0691  20.4254
    20.8596  22.0176  22.9093

     occupation numbers 
     1.0000   1.0000   1.0000   1.0000   1.0000   1.0000   1.0000   1.0000
     1.0000   1.0000   1.0000   1.0000   1.0000   1.0000   1.0000   1.0000
     1.0000   1.0000   1.0000   1.0000   1.0000   1.0000   1.0000   1.0000
     1.0000   1.0000   1.0000   1.0000   1.0000   1.0000   1.0000   1.0000
     1.0000   1.0000   1.0000   1.0000   1.0000   1.0000   1.0000   1.0000
     1.0000   1.0000   1.0000   1.0000   1.0000   1.0000   1.0000   1.0000
     1.0000   1.0000   1.0000   1.0000   1.0000   1.0000   1.0000   1.0000
     1.0000   1.0000   1.0000   1.0000   1.0000   1.0000   1.0000   1.0016
     1.0181   1.0510   1.0820   1.0518   0.6405   0.5193   0.2806   0.1495
     0.0364   0.0034   0.0002   0.0001   0.0000   0.0000   0.0000   0.0000
     0.0000   0.0000   0.0000

          k = 0.0000 0.3836 0.0000 ( 18737 PWs)   bands (ev):

   -68.8278 -68.8198 -68.6395 -68.6379 -68.4758 -68.4718 -68.1953 -68.1911
   -35.5919 -35.5527 -35.0183 -34.9807 -34.8629 -34.7673 -34.7646 -34.7340
   -34.7339 -34.7221 -34.6470 -34.5909 -34.5728 -34.5432 -34.5073 -34.5029
   -34.5018 -34.4053 -34.3360 -34.3345 -34.1719 -34.1700 -34.1548 -34.1507
     0.4704   1.7791   9.7872  10.8869  11.0260  11.5349  12.5733  12.6984
    13.5575  14.0817  14.5936  14.7207  14.8124  14.8245  15.1972  15.4012
    15.7904  15.8053  15.9048  15.9462  16.1282  16.1660  16.6088  16.9209
    17.0664  17.3058  17.3799  17.4789  17.8956  17.9494  17.9840  18.0374
    18.4187  18.4207  18.4945  18.6493  18.6551  18.7523  18.7607  18.8195
    18.8715  18.8852  19.0191  19.2292  19.2352  19.6379  19.8761  20.0107
    21.9423  22.1720  22.5063

     occupation numbers 
     1.0000   1.0000   1.0000   1.0000   1.0000   1.0000   1.0000   1.0000
     1.0000   1.0000   1.0000   1.0000   1.0000   1.0000   1.0000   1.0000
     1.0000   1.0000   1.0000   1.0000   1.0000   1.0000   1.0000   1.0000
     1.0000   1.0000   1.0000   1.0000   1.0000   1.0000   1.0000   1.0000
     1.0000   1.0000   1.0000   1.0000   1.0000   1.0000   1.0000   1.0000
     1.0000   1.0000   1.0000   1.0000   1.0000   1.0000   1.0000   1.0000
     1.0000   1.0000   1.0000   1.0000   1.0000   1.0000   1.0000   1.0000
     1.0000   1.0000   1.0000   1.0000   1.0001   1.0003   1.0007   1.0024
     1.0227   1.0195   0.8393   0.2944   0.2778   0.0829   0.0731   0.0278
     0.0103   0.0077   0.0003   0.0000   0.0000   0.0000   0.0000   0.0000
     0.0000   0.0000   0.0000

          k = 0.0000 0.3836 0.2055 ( 18714 PWs)   bands (ev):

   -68.8276 -68.8198 -68.6398 -68.6375 -68.4761 -68.4717 -68.1953 -68.1912
   -35.5946 -35.5521 -35.0185 -34.9796 -34.8565 -34.7770 -34.7618 -34.7453
   -34.7369 -34.7035 -34.6465 -34.5954 -34.5756 -34.5476 -34.5060 -34.5015
   -34.4989 -34.4022 -34.3367 -34.3352 -34.1723 -34.1691 -34.1549 -34.1503
     0.5187   1.8287   9.7776  10.8311  10.9585  11.4193  12.1085  12.9147
    13.4271  14.1734  14.6927  14.7541  14.9230  14.9277  15.2870  15.4406
    15.6363  15.9021  15.9201  15.9631  16.2034  16.3797  16.4836  16.8900
    16.9893  17.1558  17.3322  17.4785  17.8543  17.9527  17.9961  18.1640
    18.4070  18.4558  18.5012  18.5784  18.6394  18.6592  18.8026  18.8323
    18.8743  18.9764  19.0602  19.1567  19.2542  19.5710  19.7609  20.2696
    21.7940  22.2330  22.6950

     occupation numbers 
     1.0000   1.0000   1.0000   1.0000   1.0000   1.0000   1.0000   1.0000
     1.0000   1.0000   1.0000   1.0000   1.0000   1.0000   1.0000   1.0000
     1.0000   1.0000   1.0000   1.0000   1.0000   1.0000   1.0000   1.0000
     1.0000   1.0000   1.0000   1.0000   1.0000   1.0000   1.0000   1.0000
     1.0000   1.0000   1.0000   1.0000   1.0000   1.0000   1.0000   1.0000
     1.0000   1.0000   1.0000   1.0000   1.0000   1.0000   1.0000   1.0000
     1.0000   1.0000   1.0000   1.0000   1.0000   1.0000   1.0000   1.0000
     1.0000   1.0000   1.0000   1.0000   1.0000   1.0003   1.0009   1.0217
     1.0397   0.9484   0.8174   0.5363   0.3243   0.2662   0.0373   0.0220
     0.0097   0.0009   0.0001   0.0000   0.0000   0.0000   0.0000   0.0000
     0.0000   0.0000   0.0000

          k = 0.0000 0.3836 0.4110 ( 18735 PWs)   bands (ev):

   -68.8270 -68.8198 -68.6403 -68.6368 -68.4767 -68.4717 -68.1953 -68.1914
   -35.6010 -35.5505 -35.0187 -34.9771 -34.8388 -34.7934 -34.7597 -34.7561
   -34.7448 -34.6760 -34.6450 -34.6049 -34.5849 -34.5590 -34.5039 -34.4983
   -34.4928 -34.3939 -34.3385 -34.3374 -34.1731 -34.1670 -34.1553 -34.1495
     0.6395   1.9532   9.7540  10.5301  10.7952  11.1661  11.5892  13.1737
    13.2102  14.3594  14.8170  14.9487  15.1113  15.1438  15.3414  15.5145
    15.6884  15.9472  16.1013  16.1356  16.2202  16.3171  16.6892  16.7153
    16.8457  16.8895  17.3194  17.4277  17.8269  17.8430  17.9139  18.2738
    18.3100  18.3613  18.5152  18.5362  18.6086  18.7320  18.7512  18.8289
    18.9355  19.0025  19.0867  19.1405  19.1865  19.5687  19.6513  20.5717
    21.6467  22.4201  22.4666

     occupation numbers 
     1.0000   1.0000   1.0000   1.0000   1.0000   1.0000   1.0000   1.0000
     1.0000   1.0000   1.0000   1.0000   1.0000   1.0000   1.0000   1.0000
     1.0000   1.0000   1.0000   1.0000   1.0000   1.0000   1.0000   1.0000
     1.0000   1.0000   1.0000   1.0000   1.0000   1.0000   1.0000   1.0000
     1.0000   1.0000   1.0000   1.0000   1.0000   1.0000   1.0000   1.0000
     1.0000   1.0000   1.0000   1.0000   1.0000   1.0000   1.0000   1.0000
     1.0000   1.0000   1.0000   1.0000   1.0000   1.0000   1.0000   1.0000
     1.0000   1.0000   1.0000   1.0000   1.0000   1.0000   1.0001   1.0677
     1.0804   1.0779   0.7700   0.6948   0.4264   0.1106   0.0843   0.0234
     0.0025   0.0005   0.0000   0.0000   0.0000   0.0000   0.0000   0.0000
     0.0000   0.0000   0.0000

          k = 0.0000 0.3836 0.6165 ( 18724 PWs)   bands (ev):

   -68.8265 -68.8198 -68.6406 -68.6362 -68.4773 -68.4717 -68.1954 -68.1916
   -35.6073 -35.5489 -35.0187 -34.9748 -34.8154 -34.8052 -34.7720 -34.7606
   -34.7473 -34.6483 -34.6431 -34.6136 -34.6008 -34.5711 -34.5019 -34.4956
   -34.4881 -34.3844 -34.3410 -34.3406 -34.1733 -34.1648 -34.1557 -34.1489
     0.7669   2.0857   9.7299  10.1030  10.6318  10.7549  11.4855  13.0528
    13.6233  14.5702  14.7013  15.0059  15.2424  15.4296  15.4404  15.7653
    15.7685  15.9684  16.0431  16.2233  16.2689  16.4521  16.4867  16.7356
    16.8067  17.0106  17.0272  17.5820  17.6456  17.7950  17.8960  18.1645
    18.2512  18.2666  18.3586  18.3973  18.5468  18.7011  18.7332  18.9029
    18.9391  19.0296  19.0521  19.0825  19.1325  19.5898  19.7943  20.8421
    21.2885  21.6057  22.5508

     occupation numbers 
     1.0000   1.0000   1.0000   1.0000   1.0000   1.0000   1.0000   1.0000
     1.0000   1.0000   1.0000   1.0000   1.0000   1.0000   1.0000   1.0000
     1.0000   1.0000   1.0000   1.0000   1.0000   1.0000   1.0000   1.0000
     1.0000   1.0000   1.0000   1.0000   1.0000   1.0000   1.0000   1.0000
     1.0000   1.0000   1.0000   1.0000   1.0000   1.0000   1.0000   1.0000
     1.0000   1.0000   1.0000   1.0000   1.0000   1.0000   1.0000   1.0000
     1.0000   1.0000   1.0000   1.0000   1.0000   1.0000   1.0000   1.0000
     1.0000   1.0000   1.0000   1.0000   1.0000   1.0000   1.0001   1.0219
     1.0575   1.0646   1.0789   1.0513   0.6551   0.1653   0.1088   0.0053
     0.0023   0.0002   0.0001   0.0000   0.0000   0.0000   0.0000   0.0000
     0.0000   0.0000   0.0000

          k = 0.0000 0.3836-0.8220 ( 18752 PWs)   bands (ev):

   -68.8263 -68.8197 -68.6407 -68.6360 -68.4776 -68.4717 -68.1954 -68.1917
   -35.6099 -35.5483 -35.0187 -34.9740 -34.8094 -34.8003 -34.7769 -34.7702
   -34.7456 -34.6422 -34.6254 -34.6196 -34.6172 -34.5762 -34.5010 -34.4946
   -34.4866 -34.3797 -34.3432 -34.3415 -34.1733 -34.1638 -34.1559 -34.1487
     0.8218   2.1432   9.7198   9.9244  10.4402  10.7010  11.4707  12.9974
    14.1748  14.2655  14.7327  14.8473  15.3857  15.5694  15.6574  15.7240
    15.7793  15.9365  16.1041  16.1128  16.2903  16.5456  16.5804  16.6790
    16.7974  16.9013  17.1193  17.5604  17.6066  17.7586  17.9724  18.1121
    18.2065  18.2157  18.2306  18.2548  18.5519  18.6881  18.7758  18.8529
    18.9734  19.0055  19.0145  19.0363  19.1244  19.6121  20.0990  20.6516
    20.9538  21.6002  22.5576

     occupation numbers 
     1.0000   1.0000   1.0000   1.0000   1.0000   1.0000   1.0000   1.0000
     1.0000   1.0000   1.0000   1.0000   1.0000   1.0000   1.0000   1.0000
     1.0000   1.0000   1.0000   1.0000   1.0000   1.0000   1.0000   1.0000
     1.0000   1.0000   1.0000   1.0000   1.0000   1.0000   1.0000   1.0000
     1.0000   1.0000   1.0000   1.0000   1.0000   1.0000   1.0000   1.0000
     1.0000   1.0000   1.0000   1.0000   1.0000   1.0000   1.0000   1.0000
     1.0000   1.0000   1.0000   1.0000   1.0000   1.0000   1.0000   1.0000
     1.0000   1.0000   1.0000   1.0000   1.0000   1.0000   1.0005   1.0097
     1.0371   1.0411   1.0478   1.0591   0.6360   0.1934   0.0579   0.0149
     0.0010   0.0004   0.0003   0.0002   0.0000   0.0000   0.0000   0.0000
     0.0000   0.0000   0.0000

          k = 0.0000 0.5754 0.0000 ( 18701 PWs)   bands (ev):

   -68.8264 -68.8198 -68.6408 -68.6378 -68.4759 -68.4713 -68.1953 -68.1917
   -35.6027 -35.5499 -35.0035 -34.9727 -34.8492 -34.7631 -34.7604 -34.7471
   -34.7457 -34.7373 -34.6641 -34.5926 -34.5470 -34.5424 -34.5207 -34.5144
   -34.4932 -34.3959 -34.3434 -34.3298 -34.1745 -34.1648 -34.1625 -34.1442
     0.6445   1.9679   9.7373  10.2862  10.6393  11.2371  12.3569  13.0785
    13.3146  14.4416  14.5605  14.9550  14.9771  15.0813  15.5881  15.6345
    15.6660  15.9075  15.9697  16.1153  16.1815  16.2112  16.3815  16.9791
    17.0763  17.1418  17.2235  17.4403  17.7085  17.8928  18.0882  18.1168
    18.1831  18.3094  18.3467  18.3856  18.4701  18.6164  18.6520  18.7757
    18.8206  18.9886  19.0010  19.0368  19.3009  19.6790  19.9248  20.1167
    21.8507  22.2811  22.4649

     occupation numbers 
     1.0000   1.0000   1.0000   1.0000   1.0000   1.0000   1.0000   1.0000
     1.0000   1.0000   1.0000   1.0000   1.0000   1.0000   1.0000   1.0000
     1.0000   1.0000   1.0000   1.0000   1.0000   1.0000   1.0000   1.0000
     1.0000   1.0000   1.0000   1.0000   1.0000   1.0000   1.0000   1.0000
     1.0000   1.0000   1.0000   1.0000   1.0000   1.0000   1.0000   1.0000
     1.0000   1.0000   1.0000   1.0000   1.0000   1.0000   1.0000   1.0000
     1.0000   1.0000   1.0000   1.0000   1.0000   1.0000   1.0000   1.0000
     1.0000   1.0000   1.0000   1.0000   1.0000   1.0001   1.0064   1.0105
     1.0280   1.0802   1.0821   1.0628   0.9115   0.3996   0.2866   0.0581
     0.0272   0.0007   0.0005   0.0002   0.0000   0.0000   0.0000   0.0000
     0.0000   0.0000   0.0000

          k = 0.0000 0.5754 0.2055 ( 18703 PWs)   bands (ev):

   -68.8262 -68.8198 -68.6408 -68.6377 -68.4761 -68.4714 -68.1953 -68.1918
   -35.6057 -35.5493 -35.0052 -34.9707 -34.8438 -34.7853 -34.7577 -34.7489
   -34.7489 -34.7163 -34.6636 -34.5984 -34.5511 -34.5472 -34.5137 -34.5101
   -34.4922 -34.3947 -34.3435 -34.3310 -34.1735 -34.1651 -34.1616 -34.1442
     0.6925   2.0189   9.7210  10.2491  10.6542  11.0321  11.9830  13.2264
    13.2319  14.4571  14.6653  15.0019  15.0895  15.1067  15.3906  15.6224
    15.7581  15.9334  16.0492  16.1574  16.3068  16.3308  16.5028  16.9216
    17.0551  17.0790  17.1142  17.2556  17.7790  17.9852  18.0392  18.0798
    18.2040  18.3516  18.4359  18.4451  18.4842  18.6213  18.6214  18.7828
    18.8981  18.9547  18.9734  19.1406  19.2609  19.6045  19.8463  20.4024
    21.8351  22.0388  22.3479

     occupation numbers 
     1.0000   1.0000   1.0000   1.0000   1.0000   1.0000   1.0000   1.0000
     1.0000   1.0000   1.0000   1.0000   1.0000   1.0000   1.0000   1.0000
     1.0000   1.0000   1.0000   1.0000   1.0000   1.0000   1.0000   1.0000
     1.0000   1.0000   1.0000   1.0000   1.0000   1.0000   1.0000   1.0000
     1.0000   1.0000   1.0000   1.0000   1.0000   1.0000   1.0000   1.0000
     1.0000   1.0000   1.0000   1.0000   1.0000   1.0000   1.0000   1.0000
     1.0000   1.0000   1.0000   1.0000   1.0000   1.0000   1.0000   1.0000
     1.0000   1.0000   1.0000   1.0000   1.0000   1.0007   1.0024   1.0055
     1.0361   1.0811   0.9922   0.9731   0.8711   0.3830   0.3828   0.0519
     0.0059   0.0016   0.0010   0.0000   0.0000   0.0000   0.0000   0.0000
     0.0000   0.0000   0.0000

          k = 0.0000 0.5754 0.4110 ( 18715 PWs)   bands (ev):

   -68.8257 -68.8198 -68.6407 -68.6375 -68.4764 -68.4715 -68.1953 -68.1920
   -35.6127 -35.5479 -35.0083 -34.9668 -34.8293 -34.8094 -34.7630 -34.7573
   -34.7518 -34.6821 -34.6619 -34.6092 -34.5643 -34.5595 -34.5004 -34.4995
   -34.4895 -34.3917 -34.3441 -34.3341 -34.1710 -34.1651 -34.1601 -34.1440
     0.8123   2.1475   9.6817  10.1654  10.4788  10.7574  11.3035  13.0717
    13.5043  14.4751  14.9212  15.0690  15.0876  15.2078  15.3636  15.7344
    15.8779  15.9565  16.0475  16.2412  16.4452  16.6182  16.6589  16.8534
    16.9771  17.1059  17.1443  17.1783  17.5780  17.9101  17.9462  18.1695
    18.2767  18.3061  18.4323  18.4726  18.5596  18.6267  18.6710  18.8159
    18.9429  18.9533  19.1471  19.2182  19.2183  19.4866  19.7291  20.7388
    21.5078  21.6583  22.4621

     occupation numbers 
     1.0000   1.0000   1.0000   1.0000   1.0000   1.0000   1.0000   1.0000
     1.0000   1.0000   1.0000   1.0000   1.0000   1.0000   1.0000   1.0000
     1.0000   1.0000   1.0000   1.0000   1.0000   1.0000   1.0000   1.0000
     1.0000   1.0000   1.0000   1.0000   1.0000   1.0000   1.0000   1.0000
     1.0000   1.0000   1.0000   1.0000   1.0000   1.0000   1.0000   1.0000
     1.0000   1.0000   1.0000   1.0000   1.0000   1.0000   1.0000   1.0000
     1.0000   1.0000   1.0000   1.0000   1.0000   1.0000   1.0000   1.0000
     1.0000   1.0000   1.0000   1.0000   1.0000   1.0001   1.0003   1.0234
     1.0690   1.0794   0.9992   0.9048   0.6071   0.3649   0.2347   0.0296
     0.0021   0.0017   0.0000   0.0000   0.0000   0.0000   0.0000   0.0000
     0.0000   0.0000   0.0000

          k = 0.0000 0.5754 0.6165 ( 18736 PWs)   bands (ev):

   -68.8253 -68.8197 -68.6407 -68.6373 -68.4768 -68.4716 -68.1953 -68.1923
   -35.6196 -35.5464 -35.0107 -34.9638 -34.8253 -34.8108 -34.7760 -34.7675
   -34.7471 -34.6594 -34.6482 -34.6179 -34.5856 -34.5727 -34.4904 -34.4900
   -34.4865 -34.3880 -34.3452 -34.3372 -34.1684 -34.1647 -34.1588 -34.1439
     0.9387   2.2849   9.6428  10.0058  10.1165  10.6828  10.8183  12.9453
    13.9098  14.4842  14.8980  14.9185  15.2487  15.4020  15.5936  15.7956
    15.8872  15.9952  16.1217  16.2347  16.3818  16.6173  16.6783  16.9205
    17.0801  17.2202  17.4090  17.4575  17.5329  17.7435  17.8933  18.1016
    18.2011  18.3096  18.3463  18.4128  18.4785  18.6078  18.7442  18.8117
    19.0573  19.0712  19.1140  19.1801  19.2398  19.5270  19.6001  20.7217
    20.9271  21.4700  22.1135

     occupation numbers 
     1.0000   1.0000   1.0000   1.0000   1.0000   1.0000   1.0000   1.0000
     1.0000   1.0000   1.0000   1.0000   1.0000   1.0000   1.0000   1.0000
     1.0000   1.0000   1.0000   1.0000   1.0000   1.0000   1.0000   1.0000
     1.0000   1.0000   1.0000   1.0000   1.0000   1.0000   1.0000   1.0000
     1.0000   1.0000   1.0000   1.0000   1.0000   1.0000   1.0000   1.0000
     1.0000   1.0000   1.0000   1.0000   1.0000   1.0000   1.0000   1.0000
     1.0000   1.0000   1.0000   1.0000   1.0000   1.0000   1.0000   1.0000
     1.0000   1.0000   1.0000   1.0000   1.0000   1.0000   1.0001   1.0081
     1.0349   1.0803   1.0822   1.0316   0.8880   0.4295   0.0932   0.0319
     0.0001   0.0001   0.0000   0.0000   0.0000   0.0000   0.0000   0.0000
     0.0000   0.0000   0.0000

          k = 0.0000 0.5754-0.8220 ( 18766 PWs)   bands (ev):

   -68.8251 -68.8197 -68.6407 -68.6372 -68.4770 -68.4717 -68.1953 -68.1924
   -35.6225 -35.5458 -35.0116 -34.9627 -34.8308 -34.8002 -34.7811 -34.7737
   -34.7459 -34.6581 -34.6234 -34.6212 -34.6062 -34.5784 -34.4872 -34.4864
   -34.4848 -34.3863 -34.3459 -34.3385 -34.1673 -34.1645 -34.1583 -34.1439
     0.9932   2.3448   9.6267   9.8321  10.0725  10.4976  10.7945  12.8996
    14.2654  14.4885  14.6700  14.8275  15.3142  15.6669  15.7138  15.7289
    15.8181  16.0442  16.0908  16.2650  16.3909  16.5772  16.7019  16.7602
    17.2566  17.3628  17.4112  17.5411  17.7500  17.8025  17.8618  17.9775
    18.1663  18.2607  18.3287  18.3674  18.4364  18.5544  18.8078  18.8203
    19.0016  19.0508  19.1293  19.1992  19.2295  19.3990  19.9356  20.2446
    20.6681  21.6169  21.8496

     occupation numbers 
     1.0000   1.0000   1.0000   1.0000   1.0000   1.0000   1.0000   1.0000
     1.0000   1.0000   1.0000   1.0000   1.0000   1.0000   1.0000   1.0000
     1.0000   1.0000   1.0000   1.0000   1.0000   1.0000   1.0000   1.0000
     1.0000   1.0000   1.0000   1.0000   1.0000   1.0000   1.0000   1.0000
     1.0000   1.0000   1.0000   1.0000   1.0000   1.0000   1.0000   1.0000
     1.0000   1.0000   1.0000   1.0000   1.0000   1.0000   1.0000   1.0000
     1.0000   1.0000   1.0000   1.0000   1.0000   1.0000   1.0000   1.0000
     1.0000   1.0000   1.0000   1.0000   1.0000   1.0000   1.0000   1.0006
     1.0224   1.0618   1.0832   1.0751   0.9913   0.6268   0.0341   0.0274
     0.0005   0.0001   0.0000   0.0000   0.0000   0.0000   0.0000   0.0000
     0.0000   0.0000   0.0000

          k = 0.0000 0.7672 0.0000 ( 18687 PWs)   bands (ev):

   -68.8255 -68.8197 -68.6417 -68.6377 -68.4760 -68.4710 -68.1954 -68.1921
   -35.6096 -35.5481 -34.9932 -34.9675 -34.8387 -34.7605 -34.7595 -34.7573
   -34.7549 -34.7404 -34.6760 -34.5940 -34.5418 -34.5323 -34.5288 -34.5226
   -34.4873 -34.3869 -34.3519 -34.3266 -34.1775 -34.1706 -34.1602 -34.1377
     0.7652   2.1008   9.7048   9.9070  10.2673  11.1553  12.2357  13.1876
    13.6478  14.2759  14.8524  15.0939  15.1174  15.2916  15.3699  15.7502
    15.8527  15.8994  15.9970  16.1540  16.2290  16.3316  16.4448  16.8236
    16.9338  17.1380  17.3855  17.4378  17.5677  17.7900  17.8273  17.8893
    18.0729  18.2430  18.2868  18.3184  18.4077  18.4987  18.5761  18.7076
    18.9122  18.9267  18.9562  19.0359  19.4690  19.8885  19.9568  20.1904
    21.0334  22.2130  22.6898

     occupation numbers 
     1.0000   1.0000   1.0000   1.0000   1.0000   1.0000   1.0000   1.0000
     1.0000   1.0000   1.0000   1.0000   1.0000   1.0000   1.0000   1.0000
     1.0000   1.0000   1.0000   1.0000   1.0000   1.0000   1.0000   1.0000
     1.0000   1.0000   1.0000   1.0000   1.0000   1.0000   1.0000   1.0000
     1.0000   1.0000   1.0000   1.0000   1.0000   1.0000   1.0000   1.0000
     1.0000   1.0000   1.0000   1.0000   1.0000   1.0000   1.0000   1.0000
     1.0000   1.0000   1.0000   1.0000   1.0000   1.0000   1.0000   1.0000
     1.0000   1.0000   1.0000   1.0000   1.0000   1.0000   1.0000   1.0001
     1.0048   1.0536   1.0731   1.0821   1.0388   0.8259   0.5450   0.1525
     0.0043   0.0031   0.0015   0.0002   0.0000   0.0000   0.0000   0.0000
     0.0000   0.0000   0.0000

          k = 0.0000 0.7672 0.2055 ( 18701 PWs)   bands (ev):

   -68.8253 -68.8197 -68.6415 -68.6377 -68.4761 -68.4711 -68.1954 -68.1922
   -35.6128 -35.5475 -34.9960 -34.9648 -34.8341 -34.7928 -34.7582 -34.7546
   -34.7485 -34.7228 -34.6757 -34.6007 -34.5469 -34.5374 -34.5195 -34.5159
   -34.4861 -34.3874 -34.3512 -34.3279 -34.1764 -34.1698 -34.1600 -34.1375
     0.8129   2.1530   9.6844   9.8711  10.2901  10.9398  11.9163  13.1219
    13.7302  14.3997  14.7651  15.1688  15.1695  15.2413  15.2712  15.7793
    15.8587  15.9354  16.0059  16.3332  16.3588  16.5254  16.5964  16.8325
    16.9300  16.9900  17.0999  17.3654  17.6625  17.8067  17.8355  18.0484
    18.1376  18.2696  18.2757  18.3283  18.4991  18.5578  18.5825  18.7284
    18.8314  18.9080  18.9313  19.1756  19.3744  19.8562  19.9231  20.4601
    20.9549  22.2140  22.3209

     occupation numbers 
     1.0000   1.0000   1.0000   1.0000   1.0000   1.0000   1.0000   1.0000
     1.0000   1.0000   1.0000   1.0000   1.0000   1.0000   1.0000   1.0000
     1.0000   1.0000   1.0000   1.0000   1.0000   1.0000   1.0000   1.0000
     1.0000   1.0000   1.0000   1.0000   1.0000   1.0000   1.0000   1.0000
     1.0000   1.0000   1.0000   1.0000   1.0000   1.0000   1.0000   1.0000
     1.0000   1.0000   1.0000   1.0000   1.0000   1.0000   1.0000   1.0000
     1.0000   1.0000   1.0000   1.0000   1.0000   1.0000   1.0000   1.0000
     1.0000   1.0000   1.0000   1.0000   1.0000   1.0000   1.0000   1.0030
     1.0147   1.0659   1.0686   1.0832   0.8243   0.6138   0.5212   0.1162
     0.0224   0.0047   0.0028   0.0000   0.0000   0.0000   0.0000   0.0000
     0.0000   0.0000   0.0000

          k = 0.0000 0.7672 0.4110 ( 18714 PWs)   bands (ev):

   -68.8249 -68.8197 -68.6412 -68.6378 -68.4763 -68.4714 -68.1953 -68.1924
   -35.6202 -35.5462 -35.0013 -34.9600 -34.8218 -34.8194 -34.7663 -34.7643
   -34.7484 -34.6853 -34.6742 -34.6121 -34.5595 -34.5530 -34.5027 -34.5004
   -34.4827 -34.3885 -34.3495 -34.3314 -34.1736 -34.1677 -34.1596 -34.1371
     0.9321   2.2848   9.6358   9.7928  10.3313  10.4457  11.2728  12.9894
    13.9253  14.5732  14.6949  14.9891  15.2255  15.2963  15.4643  15.8279
    15.8922  15.9803  16.0275  16.4414  16.5815  16.7243  16.8060  16.9229
    17.0293  17.0762  17.1327  17.4171  17.4193  17.7701  17.7882  18.1817
    18.2441  18.2475  18.3199  18.3423  18.5230  18.6125  18.6519  18.6620
    18.9221  18.9930  19.1310  19.1953  19.2692  19.7407  19.7931  20.6905
    20.8788  21.3050  22.5801

     occupation numbers 
     1.0000   1.0000   1.0000   1.0000   1.0000   1.0000   1.0000   1.0000
     1.0000   1.0000   1.0000   1.0000   1.0000   1.0000   1.0000   1.0000
     1.0000   1.0000   1.0000   1.0000   1.0000   1.0000   1.0000   1.0000
     1.0000   1.0000   1.0000   1.0000   1.0000   1.0000   1.0000   1.0000
     1.0000   1.0000   1.0000   1.0000   1.0000   1.0000   1.0000   1.0000
     1.0000   1.0000   1.0000   1.0000   1.0000   1.0000   1.0000   1.0000
     1.0000   1.0000   1.0000   1.0000   1.0000   1.0000   1.0000   1.0000
     1.0000   1.0000   1.0000   1.0000   1.0000   1.0000   1.0000   1.0275
     1.0541   1.0557   1.0823   1.0828   0.7426   0.4130   0.2871   0.2585
     0.0035   0.0006   0.0000   0.0000   0.0000   0.0000   0.0000   0.0000
     0.0000   0.0000   0.0000

          k = 0.0000 0.7672 0.6165 ( 18728 PWs)   bands (ev):

   -68.8245 -68.8197 -68.6408 -68.6379 -68.4765 -68.4716 -68.1953 -68.1927
   -35.6274 -35.5448 -35.0052 -34.9567 -34.8369 -34.8073 -34.7784 -34.7748
   -34.7433 -34.6717 -34.6493 -34.6207 -34.5761 -34.5730 -34.4910 -34.4866
   -34.4778 -34.3897 -34.3481 -34.3351 -34.1707 -34.1658 -34.1591 -34.1367
     1.0579   2.4262   9.5879   9.7218   9.9662  10.3723  10.7204  12.8814
    14.1963  14.4158  14.8598  14.9986  15.2181  15.3819  15.6676  15.7632
    15.9459  16.0803  16.2200  16.2573  16.5740  16.7071  16.7350  16.9321
    17.1504  17.3616  17.5264  17.6393  17.7152  17.7446  17.8560  18.1613
    18.1702  18.2400  18.2824  18.4162  18.4329  18.5686  18.7827  18.8095
    19.0309  19.1110  19.1612  19.2614  19.2806  19.4808  19.4923  20.1914
    20.4696  21.2872  22.0466

     occupation numbers 
     1.0000   1.0000   1.0000   1.0000   1.0000   1.0000   1.0000   1.0000
     1.0000   1.0000   1.0000   1.0000   1.0000   1.0000   1.0000   1.0000
     1.0000   1.0000   1.0000   1.0000   1.0000   1.0000   1.0000   1.0000
     1.0000   1.0000   1.0000   1.0000   1.0000   1.0000   1.0000   1.0000
     1.0000   1.0000   1.0000   1.0000   1.0000   1.0000   1.0000   1.0000
     1.0000   1.0000   1.0000   1.0000   1.0000   1.0000   1.0000   1.0000
     1.0000   1.0000   1.0000   1.0000   1.0000   1.0000   1.0000   1.0000
     1.0000   1.0000   1.0000   1.0000   1.0000   1.0000   1.0000   1.0209
     1.0236   1.0522   1.0713   1.0266   0.9981   0.5733   0.0519   0.0331
     0.0002   0.0000   0.0000   0.0000   0.0000   0.0000   0.0000   0.0000
     0.0000   0.0000   0.0000

          k = 0.0000 0.7672-0.8220 ( 18738 PWs)   bands (ev):

   -68.8243 -68.8197 -68.6406 -68.6380 -68.4765 -68.4717 -68.1953 -68.1928
   -35.6304 -35.5442 -35.0066 -34.9556 -34.8430 -34.8002 -34.7839 -34.7785
   -34.7417 -34.6704 -34.6259 -34.6238 -34.5952 -34.5789 -34.4876 -34.4812
   -34.4749 -34.3902 -34.3477 -34.3367 -34.1695 -34.1650 -34.1588 -34.1365
     1.1121   2.4880   9.5683   9.6946   9.7751  10.3846  10.5068  12.8417
    14.3580  14.3622  14.8168  15.0631  15.2371  15.4482  15.7346  15.7972
    15.9495  16.0282  16.1693  16.4011  16.5200  16.6570  16.7818  16.9621
    16.9992  17.5155  17.5399  17.6150  17.7369  18.0349  18.0368  18.1307
    18.2342  18.2396  18.4858  18.5100  18.5162  18.5309  18.8928  18.9036
    18.9970  19.0063  19.1166  19.2241  19.2462  19.2874  19.4783  19.7140
    20.2018  21.4139  21.8198

     occupation numbers 
     1.0000   1.0000   1.0000   1.0000   1.0000   1.0000   1.0000   1.0000
     1.0000   1.0000   1.0000   1.0000   1.0000   1.0000   1.0000   1.0000
     1.0000   1.0000   1.0000   1.0000   1.0000   1.0000   1.0000   1.0000
     1.0000   1.0000   1.0000   1.0000   1.0000   1.0000   1.0000   1.0000
     1.0000   1.0000   1.0000   1.0000   1.0000   1.0000   1.0000   1.0000
     1.0000   1.0000   1.0000   1.0000   1.0000   1.0000   1.0000   1.0000
     1.0000   1.0000   1.0000   1.0000   1.0000   1.0000   1.0000   1.0000
     1.0000   1.0000   1.0000   1.0000   1.0000   1.0022   1.0023   1.0132
     1.0495   1.0520   0.8662   0.7879   0.7666   0.7142   0.0066   0.0052
     0.0005   0.0004   0.0000   0.0000   0.0000   0.0000   0.0000   0.0000
     0.0000   0.0000   0.0000

          k = 0.2000 0.0000 0.0000 ( 18759 PWs)   bands (ev):

   -68.8286 -68.8208 -68.6381 -68.6380 -68.4753 -68.4726 -68.1948 -68.1908
   -35.5759 -35.5582 -35.0311 -34.9957 -34.8739 -34.8094 -34.7402 -34.7255
   -34.7159 -34.6568 -34.6293 -34.6290 -34.5917 -34.5699 -34.5097 -34.4906
   -34.4672 -34.4158 -34.3464 -34.3298 -34.1792 -34.1663 -34.1655 -34.1397
     0.3744   1.4150  10.1823  11.2415  11.7680  11.9886  12.6596  12.8178
    13.4166  13.5531  14.4895  14.5730  14.6154  14.7549  14.9137  14.9200
    15.4079  15.5743  15.7913  15.9952  15.9985  16.3197  16.7382  16.7544
    17.2989  17.6762  17.6803  17.7212  17.7655  18.0400  18.1048  18.1907
    18.2559  18.3596  18.5987  18.6863  18.7114  18.8233  18.9410  18.9760
    19.0469  19.0755  19.1119  19.2603  19.5063  19.5273  19.7145  19.7752
    21.2693  22.1077  23.0544

     occupation numbers 
     1.0000   1.0000   1.0000   1.0000   1.0000   1.0000   1.0000   1.0000
     1.0000   1.0000   1.0000   1.0000   1.0000   1.0000   1.0000   1.0000
     1.0000   1.0000   1.0000   1.0000   1.0000   1.0000   1.0000   1.0000
     1.0000   1.0000   1.0000   1.0000   1.0000   1.0000   1.0000   1.0000
     1.0000   1.0000   1.0000   1.0000   1.0000   1.0000   1.0000   1.0000
     1.0000   1.0000   1.0000   1.0000   1.0000   1.0000   1.0000   1.0000
     1.0000   1.0000   1.0000   1.0000   1.0000   1.0000   1.0000   1.0000
     1.0000   1.0000   1.0000   1.0000   1.0000   1.0025   1.0086   1.0308
     1.0596   1.0786   0.4616   0.1975   0.1453   0.0260   0.0022   0.0009
     0.0001   0.0001   0.0000   0.0000   0.0000   0.0000   0.0000   0.0000
     0.0000   0.0000   0.0000

          k = 0.2000 0.0000 0.2055 ( 18733 PWs)   bands (ev):

   -68.8284 -68.8208 -68.6389 -68.6370 -68.4757 -68.4725 -68.1949 -68.1909
   -35.5780 -35.5578 -35.0300 -34.9952 -34.8665 -34.8068 -34.7428 -34.7279
   -34.7182 -34.6564 -34.6291 -34.6274 -34.5946 -34.5737 -34.5116 -34.4903
   -34.4694 -34.4105 -34.3456 -34.3307 -34.1797 -34.1659 -34.1656 -34.1398
     0.4230   1.4631  10.1747  11.1123  11.7330  11.7450  12.6194  12.7304
    13.3002  13.6435  14.5660  14.6591  14.7167  14.8599  14.9990  15.0700
    15.4491  15.6044  15.7986  16.0022  16.0130  16.3318  16.7037  16.7074
    17.2535  17.3216  17.6994  17.8269  17.8624  17.9309  18.1428  18.1945
    18.2910  18.3448  18.6162  18.6223  18.6595  18.8499  18.9036  18.9713
    19.0038  19.0085  19.0878  19.2309  19.4918  19.5360  19.7120  19.7508
    21.5052  22.0109  22.8104

     occupation numbers 
     1.0000   1.0000   1.0000   1.0000   1.0000   1.0000   1.0000   1.0000
     1.0000   1.0000   1.0000   1.0000   1.0000   1.0000   1.0000   1.0000
     1.0000   1.0000   1.0000   1.0000   1.0000   1.0000   1.0000   1.0000
     1.0000   1.0000   1.0000   1.0000   1.0000   1.0000   1.0000   1.0000
     1.0000   1.0000   1.0000   1.0000   1.0000   1.0000   1.0000   1.0000
     1.0000   1.0000   1.0000   1.0000   1.0000   1.0000   1.0000   1.0000
     1.0000   1.0000   1.0000   1.0000   1.0000   1.0000   1.0000   1.0000
     1.0000   1.0000   1.0000   1.0000   1.0000   1.0002   1.0160   1.0323
     1.0746   1.0825   0.4001   0.3795   0.2655   0.0158   0.0052   0.0011
     0.0005   0.0004   0.0000   0.0000   0.0000   0.0000   0.0000   0.0000
     0.0000   0.0000   0.0000

          k = 0.2000 0.0000 0.4110 ( 18730 PWs)   bands (ev):

   -68.8278 -68.8207 -68.6396 -68.6361 -68.4766 -68.4724 -68.1949 -68.1911
   -35.5830 -35.5568 -35.0274 -34.9941 -34.8465 -34.8005 -34.7507 -34.7326
   -34.7243 -34.6555 -34.6287 -34.6238 -34.6024 -34.5825 -34.5159 -34.4898
   -34.4739 -34.3982 -34.3440 -34.3333 -34.1808 -34.1669 -34.1639 -34.1401
     0.5448   1.5838  10.1459  10.7018  11.1821  11.6521  12.5524  12.7919
    13.0928  13.9364  14.6661  14.9025  14.9117  15.1010  15.2370  15.4062
    15.5439  15.6807  15.8209  16.0047  16.0505  16.3573  16.5319  16.5321
    16.9516  17.2873  17.5753  17.6485  17.7276  18.0339  18.0852  18.1658
    18.2480  18.3503  18.4576  18.4910  18.5566  18.6991  18.8108  18.9299
    18.9635  19.0057  19.0982  19.1175  19.5607  19.5729  19.6717  19.8309
    21.7948  22.0729  22.3497

     occupation numbers 
     1.0000   1.0000   1.0000   1.0000   1.0000   1.0000   1.0000   1.0000
     1.0000   1.0000   1.0000   1.0000   1.0000   1.0000   1.0000   1.0000
     1.0000   1.0000   1.0000   1.0000   1.0000   1.0000   1.0000   1.0000
     1.0000   1.0000   1.0000   1.0000   1.0000   1.0000   1.0000   1.0000
     1.0000   1.0000   1.0000   1.0000   1.0000   1.0000   1.0000   1.0000
     1.0000   1.0000   1.0000   1.0000   1.0000   1.0000   1.0000   1.0000
     1.0000   1.0000   1.0000   1.0000   1.0000   1.0000   1.0000   1.0000
     1.0000   1.0000   1.0000   1.0000   1.0000   1.0022   1.0061   1.0223
     1.0560   1.0814   0.9440   0.8504   0.6185   0.1695   0.0324   0.0029
     0.0013   0.0004   0.0000   0.0000   0.0000   0.0000   0.0000   0.0000
     0.0000   0.0000   0.0000

          k = 0.2000 0.0000 0.6165 ( 18731 PWs)   bands (ev):

   -68.8272 -68.8206 -68.6399 -68.6354 -68.4774 -68.4723 -68.1949 -68.1913
   -35.5879 -35.5559 -35.0248 -34.9930 -34.8204 -34.7942 -34.7610 -34.7412
   -34.7284 -34.6545 -34.6282 -34.6204 -34.6124 -34.5901 -34.5200 -34.4897
   -34.4778 -34.3857 -34.3430 -34.3371 -34.1816 -34.1679 -34.1623 -34.1404
     0.6733   1.7117  10.0780  10.2621  10.6859  11.5756  12.4044  12.9060
    13.3294  14.3213  14.6100  15.0971  15.2103  15.2360  15.5271  15.6320
    15.7135  15.8202  15.8549  15.9872  16.0497  16.2852  16.2927  16.4287
    16.6678  17.1346  17.3379  17.4537  17.8046  17.9319  17.9362  18.0749
    18.1897  18.3116  18.3285  18.4153  18.4575  18.5415  18.6521  18.7846
    18.8248  19.0063  19.0590  19.1382  19.5641  19.7168  19.8521  19.9028
    21.3995  22.0190  22.9757

     occupation numbers 
     1.0000   1.0000   1.0000   1.0000   1.0000   1.0000   1.0000   1.0000
     1.0000   1.0000   1.0000   1.0000   1.0000   1.0000   1.0000   1.0000
     1.0000   1.0000   1.0000   1.0000   1.0000   1.0000   1.0000   1.0000
     1.0000   1.0000   1.0000   1.0000   1.0000   1.0000   1.0000   1.0000
     1.0000   1.0000   1.0000   1.0000   1.0000   1.0000   1.0000   1.0000
     1.0000   1.0000   1.0000   1.0000   1.0000   1.0000   1.0000   1.0000
     1.0000   1.0000   1.0000   1.0000   1.0000   1.0000   1.0000   1.0000
     1.0000   1.0000   1.0000   1.0000   1.0000   1.0002   1.0002   1.0050
     1.0304   1.0808   1.0832   1.0279   0.9444   0.6752   0.2864   0.0504
     0.0253   0.0004   0.0001   0.0000   0.0000   0.0000   0.0000   0.0000
     0.0000   0.0000   0.0000

          k = 0.2000 0.0000-0.8220 ( 18742 PWs)   bands (ev):

   -68.8270 -68.8206 -68.6401 -68.6351 -68.4777 -68.4723 -68.1950 -68.1914
   -35.5900 -35.5555 -35.0237 -34.9926 -34.8040 -34.7927 -34.7667 -34.7488
   -34.7285 -34.6541 -34.6280 -34.6191 -34.6172 -34.5930 -34.5216 -34.4897
   -34.4792 -34.3801 -34.3427 -34.3392 -34.1819 -34.1684 -34.1616 -34.1406
     0.7287   1.7669  10.0271  10.0712  10.5233  11.5451  12.3492  12.8535
    13.8544  14.1329  14.7668  15.1006  15.1883  15.3780  15.6310  15.7268
    15.7674  15.8257  16.0395  16.0403  16.0935  16.1102  16.1458  16.5041
    16.5222  16.9905  17.0750  17.5979  17.7628  17.8533  17.8629  17.9901
    18.1748  18.2561  18.3445  18.3994  18.4110  18.4625  18.5961  18.7028
    18.7715  18.9848  19.0829  19.1564  19.5629  19.7732  19.9307  19.9499
    21.1284  22.1400  23.1038

     occupation numbers 
     1.0000   1.0000   1.0000   1.0000   1.0000   1.0000   1.0000   1.0000
     1.0000   1.0000   1.0000   1.0000   1.0000   1.0000   1.0000   1.0000
     1.0000   1.0000   1.0000   1.0000   1.0000   1.0000   1.0000   1.0000
     1.0000   1.0000   1.0000   1.0000   1.0000   1.0000   1.0000   1.0000
     1.0000   1.0000   1.0000   1.0000   1.0000   1.0000   1.0000   1.0000
     1.0000   1.0000   1.0000   1.0000   1.0000   1.0000   1.0000   1.0000
     1.0000   1.0000   1.0000   1.0000   1.0000   1.0000   1.0000   1.0000
     1.0000   1.0000   1.0000   1.0000   1.0000   1.0000   1.0000   1.0008
     1.0252   1.0597   1.0825   1.0490   1.0343   0.9318   0.4714   0.1620
     0.0620   0.0008   0.0000   0.0000   0.0000   0.0000   0.0000   0.0000
     0.0000   0.0000   0.0000

          k = 0.2000 0.1918 0.0000 ( 18745 PWs)   bands (ev):

   -68.8282 -68.8208 -68.6384 -68.6381 -68.4753 -68.4725 -68.1949 -68.1910
   -35.5794 -35.5577 -35.0265 -34.9924 -34.8701 -34.8076 -34.7424 -34.7314
   -34.7149 -34.6774 -34.6332 -34.6064 -34.5928 -34.5702 -34.5076 -34.4958
   -34.4696 -34.4135 -34.3437 -34.3318 -34.1783 -34.1682 -34.1610 -34.1419
     0.4292   1.4723  10.1631  11.2293  11.5220  11.9231  12.5781  12.6480
    13.4182  13.5066  14.5619  14.6192  14.6756  14.8171  15.0315  15.0929
    15.4517  15.6229  15.7917  15.9275  16.1177  16.2708  16.7502  16.7573
[...]
     1.0000   1.0000   1.0000   1.0000   1.0000   1.0000   1.0000   1.0000
     1.0000   1.0000   1.0000   1.0000   1.0000   1.0000   1.0000   1.0000
     1.0000   1.0000   1.0000   1.0000   1.0000   1.0000   1.0000   1.0000
     1.0000   1.0000   1.0000   1.0000   1.0000   1.0000   1.0000   1.0000
     1.0000   1.0003   1.0416   1.0442   1.0748   1.0627   0.5362   0.0344
     0.0202   0.0000   0.0000   0.0000   0.0000   0.0000   0.0000   0.0000
     0.0000   0.0000   0.0000

          k = 0.3699 0.8245 0.2268 ( 17043 PWs)   bands (ev):

   -66.6858 -66.6819 -66.6569 -66.6565 -66.6175 -66.6143 -65.9539 -65.9537
   -33.4056 -33.3668 -33.1556 -33.1266 -33.0752 -33.0631 -32.6896 -32.6620
   -32.6447 -32.6382 -32.6361 -32.6159 -32.5329 -32.5200 -32.5007 -32.4764
   -32.4539 -32.4503 -32.0501 -32.0462 -32.0254 -32.0171 -32.0109 -32.0060
     2.7811   3.0390  11.6501  11.7291  12.2364  12.9879  13.3699  13.5286
    15.7236  15.9955  16.5607  16.8682  17.2592  17.3599  17.4604  17.5486
    17.5798  17.7278  17.9397  17.9658  18.1002  18.1634  18.3936  18.6686
    18.8155  18.9571  19.3390  19.5275  19.5697  19.6965  19.8069  19.8726
    20.0338  20.1563  20.4981  20.5815  20.6197  20.7254  20.8767  20.9832
    21.1320  21.2311  21.3671  21.4651  21.5231  21.8095  22.1907  22.4439
    24.2916  25.0046  25.7350

     occupation numbers 
     1.0000   1.0000   1.0000   1.0000   1.0000   1.0000   1.0000   1.0000
     1.0000   1.0000   1.0000   1.0000   1.0000   1.0000   1.0000   1.0000
     1.0000   1.0000   1.0000   1.0000   1.0000   1.0000   1.0000   1.0000
     1.0000   1.0000   1.0000   1.0000   1.0000   1.0000   1.0000   1.0000
     1.0000   1.0000   1.0000   1.0000   1.0000   1.0000   1.0000   1.0000
     1.0000   1.0000   1.0000   1.0000   1.0000   1.0000   1.0000   1.0000
     1.0000   1.0000   1.0000   1.0000   1.0000   1.0000   1.0000   1.0000
     1.0000   1.0000   1.0000   1.0000   1.0000   1.0000   1.0000   1.0000
     1.0000   1.0003   1.0754   1.0698   1.0288   0.7517   0.2328   0.0558
     0.0031   0.0002   0.0000   0.0000   0.0000   0.0000   0.0000   0.0000
     0.0000   0.0000   0.0000

          k = 0.3699 0.8245 0.4535 ( 17058 PWs)   bands (ev):

   -66.6832 -66.6803 -66.6567 -66.6563 -66.6191 -66.6169 -65.9539 -65.9538
   -33.4458 -33.4025 -33.1468 -33.1020 -33.0420 -33.0401 -32.7030 -32.6824
   -32.6772 -32.6700 -32.6611 -32.6492 -32.5116 -32.4965 -32.4929 -32.4638
   -32.4301 -32.4282 -32.0441 -32.0421 -32.0178 -32.0119 -32.0088 -32.0031
     3.0348   3.2980  11.5164  11.6217  12.0544  12.4294  12.6428  12.9227
    15.9273  16.0669  16.8127  16.9867  17.3864  17.4210  17.5953  17.7588
    17.8563  17.9609  18.1066  18.1965  18.2238  18.3498  18.4386  18.4725
    18.6829  18.7651  19.2731  19.3329  19.4482  19.5376  19.5770  19.6976
    20.1777  20.3252  20.6377  20.6973  20.7685  20.8500  20.9961  21.0489
    21.2302  21.2668  21.3522  21.3980  21.6656  21.8555  22.7479  23.1144
    24.2444  24.6923  24.8800

     occupation numbers 
     1.0000   1.0000   1.0000   1.0000   1.0000   1.0000   1.0000   1.0000
     1.0000   1.0000   1.0000   1.0000   1.0000   1.0000   1.0000   1.0000
     1.0000   1.0000   1.0000   1.0000   1.0000   1.0000   1.0000   1.0000
     1.0000   1.0000   1.0000   1.0000   1.0000   1.0000   1.0000   1.0000
     1.0000   1.0000   1.0000   1.0000   1.0000   1.0000   1.0000   1.0000
     1.0000   1.0000   1.0000   1.0000   1.0000   1.0000   1.0000   1.0000
     1.0000   1.0000   1.0000   1.0000   1.0000   1.0000   1.0000   1.0000
     1.0000   1.0000   1.0000   1.0000   1.0000   1.0000   1.0000   1.0000
     1.0005   1.0112   0.9985   0.8462   0.5925   0.3073   0.0452   0.0177
     0.0003   0.0001   0.0000   0.0000   0.0000   0.0000   0.0000   0.0000
     0.0000   0.0000   0.0000

          k = 0.3699 0.8245 0.6803 ( 17053 PWs)   bands (ev):

   -66.6803 -66.6786 -66.6566 -66.6561 -66.6208 -66.6197 -65.9540 -65.9540
   -33.4786 -33.4312 -33.1409 -33.0921 -33.0113 -33.0100 -32.7149 -32.7103
   -32.7032 -32.6903 -32.6769 -32.6730 -32.5009 -32.4929 -32.4752 -32.4609
   -32.4073 -32.4064 -32.0380 -32.0349 -32.0125 -32.0088 -32.0053 -32.0006
     3.3181   3.5893  11.3779  11.4666  11.6717  11.7275  12.0495  12.7334
    16.1104  16.1666  17.0450  17.0810  17.3746  17.3929  17.6461  17.8776
    18.1026  18.2486  18.2952  18.4151  18.5298  18.5506  18.6033  18.6690
    18.7301  18.8620  19.0467  19.1927  19.2307  19.3153  19.4433  19.6905
    20.3625  20.5228  20.6110  20.7573  20.7904  20.9351  20.9863  21.0640
    21.1612  21.2924  21.4257  21.4868  21.8950  21.9447  23.0089  23.0218
    23.4720  23.7541  24.8867

     occupation numbers 
     1.0000   1.0000   1.0000   1.0000   1.0000   1.0000   1.0000   1.0000
     1.0000   1.0000   1.0000   1.0000   1.0000   1.0000   1.0000   1.0000
     1.0000   1.0000   1.0000   1.0000   1.0000   1.0000   1.0000   1.0000
     1.0000   1.0000   1.0000   1.0000   1.0000   1.0000   1.0000   1.0000
     1.0000   1.0000   1.0000   1.0000   1.0000   1.0000   1.0000   1.0000
     1.0000   1.0000   1.0000   1.0000   1.0000   1.0000   1.0000   1.0000
     1.0000   1.0000   1.0000   1.0000   1.0000   1.0000   1.0000   1.0000
     1.0000   1.0000   1.0000   1.0000   1.0000   1.0000   1.0000   1.0000
     1.0198   1.0820   1.0410   0.6347   0.5105   0.1136   0.0531   0.0132
     0.0015   0.0000   0.0000   0.0000   0.0000   0.0000   0.0000   0.0000
     0.0000   0.0000   0.0000

          k = 0.3699 0.8245-0.9070 ( 17068 PWs)   bands (ev):

   -66.6790 -66.6779 -66.6565 -66.6560 -66.6216 -66.6209 -65.9541 -65.9540
   -33.4908 -33.4419 -33.1389 -33.0897 -32.9985 -32.9979 -32.7214 -32.7182
   -32.7139 -32.6978 -32.6866 -32.6781 -32.4978 -32.4919 -32.4691 -32.4602
   -32.3985 -32.3984 -32.0340 -32.0324 -32.0115 -32.0060 -32.0056 -31.9991
     3.4465   3.7221  11.2477  11.2854  11.4717  11.5319  11.9513  12.6683
    16.1208  16.2769  17.1173  17.1228  17.3650  17.3844  17.6247  17.8219
    18.2933  18.3173  18.4948  18.5750  18.5752  18.6465  18.6607  18.8274
    18.8378  18.9573  19.0292  19.0339  19.1612  19.2605  19.4241  19.6860
    20.4772  20.5442  20.6462  20.7195  20.8090  20.9251  20.9996  21.0030
    21.0628  21.3179  21.6222  21.6267  21.8520  21.8837  22.5662  22.8874
    23.1447  23.7029  24.9853

     occupation numbers 
     1.0000   1.0000   1.0000   1.0000   1.0000   1.0000   1.0000   1.0000
     1.0000   1.0000   1.0000   1.0000   1.0000   1.0000   1.0000   1.0000
     1.0000   1.0000   1.0000   1.0000   1.0000   1.0000   1.0000   1.0000
     1.0000   1.0000   1.0000   1.0000   1.0000   1.0000   1.0000   1.0000
     1.0000   1.0000   1.0000   1.0000   1.0000   1.0000   1.0000   1.0000
     1.0000   1.0000   1.0000   1.0000   1.0000   1.0000   1.0000   1.0000
     1.0000   1.0000   1.0000   1.0000   1.0000   1.0000   1.0000   1.0000
     1.0000   1.0000   1.0000   1.0000   1.0000   1.0000   1.0000   1.0000
     1.0670   1.0831   0.9814   0.7725   0.4426   0.1298   0.0427   0.0403
     0.0135   0.0000   0.0000   0.0000   0.0000   0.0000   0.0000   0.0000
     0.0000   0.0000   0.0000

     the Fermi energy is    20.8211 ev

!    total energy              =   -2674.33553883 Ry
     Harris-Foulkes estimate   =   -2674.33553883 Ry
     estimated scf accuracy    <          2.0E-11 Ry

     The total energy is the sum of the following terms:

     one-electron contribution =    -824.54943656 Ry
     hartree contribution      =     516.24501094 Ry
     xc contribution           =    -289.92145700 Ry
     ewald contribution        =   -1466.85994939 Ry
     one-center paw contrib.   =    -609.25050369 Ry
      -> PAW hartree energy AE =     216.88891950 Ry
      -> PAW hartree energy PS =    -216.01955402 Ry
      -> PAW xc energy AE      =    -111.69760033 Ry
      -> PAW xc energy PS      =      34.67008564 Ry
      -> total E_H with PAW    =     517.11437642 Ry
      -> total E_XC with PAW   =    -366.94897169 Ry
     smearing contrib. (-TS)   =       0.00079687 Ry

     convergence has been achieved in  18 iterations

     Forces acting on atoms (cartesian axes, Ry/au):

     atom    1 type  1   force =     0.00000000    0.00000000    0.00000840
     atom    2 type  1   force =     0.00000000    0.00000000   -0.00000840
     atom    3 type  1   force =     0.00000000    0.00000000   -0.00000346
     atom    4 type  1   force =     0.00000000    0.00000000    0.00000346
     atom    5 type  1   force =     0.00000000    0.00000000    0.00000000
     atom    6 type  1   force =     0.00000000    0.00000000    0.00000000
     atom    7 type  1   force =     0.00000000    0.00000000   -0.00000000
     atom    8 type  1   force =     0.00000000    0.00000000   -0.00000000
     atom    9 type  2   force =     0.00000000    0.00000000    0.00000767
     atom   10 type  2   force =     0.00000000    0.00000000   -0.00000767
     The non-local contrib.  to forces
     atom    1 type  1   force =     0.00000000    0.00000000   -0.08105055
     atom    2 type  1   force =     0.00000000    0.00000000    0.08105055
     atom    3 type  1   force =     0.00000000    0.00000000    0.02412425
     atom    4 type  1   force =     0.00000000    0.00000000   -0.02412425
     atom    5 type  1   force =    -0.00000000   -0.00000000    0.00000000
     atom    6 type  1   force =     0.00000000    0.00000000    0.00000000
     atom    7 type  1   force =     0.00000000    0.00000000    0.00000000
     atom    8 type  1   force =     0.00000000    0.00000000   -0.00000000
     atom    9 type  2   force =     0.00000000    0.00000000    0.11852408
     atom   10 type  2   force =     0.00000000    0.00000000   -0.11852408
     The ionic contribution  to forces
     atom    1 type  1   force =    -0.00000000   -0.00000000   -3.09718131
     atom    2 type  1   force =    -0.00000000   -0.00000000    3.09718131
     atom    3 type  1   force =    -0.00000000    0.00000000    4.18632190
     atom    4 type  1   force =    -0.00000000    0.00000000   -4.18632190
     atom    5 type  1   force =     0.00000000    0.00000000    0.00000000
     atom    6 type  1   force =     0.00000000    0.00000000    0.00000000
     atom    7 type  1   force =     0.00000000   -0.00000000   -0.00000000
     atom    8 type  1   force =     0.00000000   -0.00000000   -0.00000000
     atom    9 type  2   force =    -0.00000000    0.00000000   -1.65094410
     atom   10 type  2   force =    -0.00000000    0.00000000    1.65094410
     The local contribution  to forces
     atom    1 type  1   force =    -0.00000000   -0.00000000    3.18110494
     atom    2 type  1   force =    -0.00000000   -0.00000000   -3.18110494
     atom    3 type  1   force =    -0.00000000    0.00000000   -4.21015415
     atom    4 type  1   force =    -0.00000000    0.00000000    4.21015415
     atom    5 type  1   force =    -0.00000000    0.00000000    0.00000000
     atom    6 type  1   force =     0.00000000    0.00000000    0.00000000
     atom    7 type  1   force =     0.00000000   -0.00000000   -0.00000000
     atom    8 type  1   force =     0.00000000   -0.00000000   -0.00000000
     atom    9 type  2   force =    -0.00000000    0.00000000    1.53368658
     atom   10 type  2   force =    -0.00000000    0.00000000   -1.53368658
     The core correction contribution to forces
     atom    1 type  1   force =     0.00000000   -0.00000000   -0.00286398
     atom    2 type  1   force =     0.00000000    0.00000000    0.00286398
     atom    3 type  1   force =     0.00000000   -0.00000000   -0.00029385
     atom    4 type  1   force =     0.00000000   -0.00000000    0.00029385
     atom    5 type  1   force =    -0.00000000   -0.00000000   -0.00000000
     atom    6 type  1   force =    -0.00000000   -0.00000000   -0.00000000
     atom    7 type  1   force =    -0.00000000   -0.00000000   -0.00000000
     atom    8 type  1   force =    -0.00000000   -0.00000000    0.00000000
     atom    9 type  2   force =     0.00000000   -0.00000000   -0.00125994
     atom   10 type  2   force =     0.00000000   -0.00000000    0.00125994
     The Hubbard contrib.    to forces
     atom    1 type  1   force =     0.00000000    0.00000000    0.00000000
     atom    2 type  1   force =     0.00000000    0.00000000    0.00000000
     atom    3 type  1   force =     0.00000000    0.00000000    0.00000000
     atom    4 type  1   force =     0.00000000    0.00000000    0.00000000
     atom    5 type  1   force =     0.00000000    0.00000000    0.00000000
     atom    6 type  1   force =     0.00000000    0.00000000    0.00000000
     atom    7 type  1   force =     0.00000000    0.00000000    0.00000000
     atom    8 type  1   force =     0.00000000    0.00000000    0.00000000
     atom    9 type  2   force =     0.00000000    0.00000000    0.00000000
     atom   10 type  2   force =     0.00000000    0.00000000    0.00000000
     The SCF correction term to forces
     atom    1 type  1   force =     0.00000000   -0.00000000   -0.00000071
     atom    2 type  1   force =    -0.00000000   -0.00000000    0.00000071
     atom    3 type  1   force =    -0.00000000    0.00000000   -0.00000160
     atom    4 type  1   force =     0.00000000    0.00000000    0.00000160
     atom    5 type  1   force =     0.00000000   -0.00000000    0.00000000
     atom    6 type  1   force =     0.00000000    0.00000000    0.00000000
     atom    7 type  1   force =    -0.00000000   -0.00000000   -0.00000000
     atom    8 type  1   force =     0.00000000   -0.00000000   -0.00000000
     atom    9 type  2   force =     0.00000000   -0.00000000    0.00000106
     atom   10 type  2   force =    -0.00000000   -0.00000000   -0.00000106

     Total force =     0.000017     Total SCF correction =     0.000003
     SCF correction compared to forces is large: reduce conv_thr to get better values


     Computing stress (Cartesian axis) and pressure

          total   stress  (Ry/bohr**3)                   (kbar)     P=      300.29
   0.00204696   0.00000000   0.00000000          301.12        0.00        0.00
   0.00000000   0.00203843   0.00000000            0.00      299.86        0.00
   0.00000000   0.00000000   0.00203858            0.00        0.00      299.89

     kinetic stress (kbar)  88383.18      0.00      0.00
                                0.00  88431.72      0.00
                                0.00      0.00  88400.88

     local   stress (kbar)  73285.46     -0.00     -0.00
                               -0.00  72556.13     -0.00
                               -0.00     -0.00  74920.08

     nonloc. stress (kbar) -65044.21      0.00      0.00
                                0.00 -65039.88      0.00
                                0.00      0.00 -65004.45

     hartree stress (kbar)  41600.94     -0.00      0.00
                               -0.00  41918.11      0.00
                                0.00      0.00  40932.96

     exc-cor stress (kbar)  -3259.68      0.00     -0.00
                                0.00  -3258.80     -0.00
                               -0.00     -0.00  -3259.44

     corecor stress (kbar) -17013.18     -0.00      0.00
                               -0.00 -17015.93     -0.00
                                0.00     -0.00 -17014.76

     ewald   stress (kbar)-117651.41     -0.00     -0.00
                               -0.00-117291.49      0.00
                               -0.00      0.00-118675.39

     hubbard stress (kbar)      0.00      0.00      0.00
                                0.00      0.00      0.00
                                0.00      0.00      0.00

     london  stress (kbar)      0.00      0.00      0.00
                                0.00      0.00      0.00
                                0.00      0.00      0.00

     DFT-D3  stress (kbar)      0.00      0.00      0.00
                                0.00      0.00      0.00
                                0.00      0.00      0.00

     XDM     stress (kbar)      0.00      0.00      0.00
                                0.00      0.00      0.00
                                0.00      0.00      0.00

     dft-nl  stress (kbar)      0.00      0.00      0.00
                                0.00      0.00      0.00
                                0.00      0.00      0.00

     TS-vdW  stress (kbar)      0.00      0.00      0.00
                                0.00      0.00      0.00
                                0.00      0.00      0.00



     Writing output data file output/fe4n.save/
 
     init_run     :     19.00s CPU     19.80s WALL (       2 calls)
     electrons    :   6771.94s CPU   7058.19s WALL (      20 calls)
     update_pot   :     32.92s CPU     33.33s WALL (      18 calls)
     forces       :     56.05s CPU     57.17s WALL (      20 calls)
     stress       :    146.52s CPU    148.65s WALL (      20 calls)

     Called by init_run:
     wfcinit      :     15.22s CPU     15.74s WALL (       2 calls)
     wfcinit:atom :      0.13s CPU      0.13s WALL (     150 calls)
     wfcinit:wfcr :     14.40s CPU     14.86s WALL (     150 calls)
     potinit      :      1.02s CPU      1.04s WALL (       2 calls)
     hinit0       :      2.16s CPU      2.30s WALL (       2 calls)

     Called by electrons:
     c_bands      :   5881.51s CPU   6133.48s WALL (     334 calls)
     sum_band     :    825.74s CPU    851.69s WALL (     334 calls)
     v_of_rho     :     10.61s CPU     10.95s WALL (     349 calls)
     v_h          :      0.75s CPU      0.77s WALL (     349 calls)
     v_xc         :     10.97s CPU     11.32s WALL (     389 calls)
     newd         :     23.09s CPU     28.11s WALL (     349 calls)
     PAW_pot      :     32.17s CPU     35.10s WALL (     367 calls)
     mix_rho      :      2.28s CPU      2.33s WALL (     334 calls)

     Called by c_bands:
     init_us_2    :     58.06s CPU     59.60s WALL (   54600 calls)
     cegterg      :   5623.47s CPU   5870.52s WALL (   25050 calls)

     Called by sum_band:
     sum_band:bec :      3.76s CPU      3.86s WALL (   26400 calls)
     addusdens    :     25.66s CPU     32.05s WALL (     334 calls)

     Called by *egterg:
     h_psi        :   3604.99s CPU   3704.43s WALL (   88532 calls)
     s_psi        :    186.64s CPU    189.36s WALL (   88532 calls)
     g_psi        :     23.33s CPU     24.42s WALL (   63332 calls)
     cdiaghg      :    845.88s CPU    945.86s WALL (   86657 calls)
     cegterg:over :    375.07s CPU    390.96s WALL (   63332 calls)
     cegterg:upda :    287.43s CPU    304.05s WALL (   63332 calls)
     cegterg:last :    141.50s CPU    147.34s WALL (   26535 calls)
     cdiaghg:chol :     47.18s CPU     49.36s WALL (   86657 calls)
     cdiaghg:inve :     14.65s CPU     15.41s WALL (   86657 calls)
     cdiaghg:para :     95.60s CPU    101.24s WALL (  173314 calls)

     Called by h_psi:
     h_psi:calbec :    208.56s CPU    214.95s WALL (   88532 calls)
     vloc_psi     :   3198.55s CPU   3287.55s WALL (   88532 calls)
     add_vuspsi   :    178.24s CPU    182.15s WALL (   88532 calls)

     General routines
     calbec       :    316.70s CPU    326.47s WALL (  122432 calls)
     fft          :      8.59s CPU      8.98s WALL (    5020 calls)
     ffts         :      0.59s CPU      0.60s WALL (     683 calls)
     fftw         :   3576.98s CPU   3673.41s WALL (12612738 calls)
     interpolate  :      0.96s CPU      0.98s WALL (     349 calls)
 
     Parallel routines
     fft_scatt_xy :    326.13s CPU    333.26s WALL (12618441 calls)
     fft_scatt_yz :   1979.41s CPU   2041.49s WALL (12618441 calls)

     PAW routines
     PAW_pot      :     32.17s CPU     35.10s WALL (     367 calls)
     PAW_symme    :      0.10s CPU      0.15s WALL (     701 calls)
 
     PWSCF        :      1h57m CPU      2h 2m WALL

 
   This run was terminated on:  19: 9:28  23Nov2020            

=------------------------------------------------------------------------------=
   JOB DONE.
=------------------------------------------------------------------------------=
