
     Program PWSCF v.5.2.0 starts on  9Nov2020 at 14:51:45 

     This program is part of the open-source Quantum ESPRESSO suite
     for quantum simulation of materials; please cite
         "P. Giannozzi et al., J. Phys.:Condens. Matter 21 395502 (2009);
          URL http://www.quantum-espresso.org", 
     in publications or presentations arising from this work. More details at
     http://www.quantum-espresso.org/quote

     Parallel version (MPI), running on    12 processors
     R & G space division:  proc/nbgrp/npool/nimage =      12
     Reading input from config.in

     Current dimensions of program PWSCF are:
     Max number of different atomic species (ntypx) = 10
     Max number of k-points (npk) =  40000
     Max angular momentum in pseudopotentials (lmaxx) =  3

     IMPORTANT: XC functional enforced from input :
     Exchange-correlation      = PBE ( 1  4  3  4 0 0)
     Any further DFT definition will be discarded
     Please, verify this is what you really want

               file Fe.pbe-spn-kjpaw_psl.0.2.1.UPF: wavefunction(s)  3D renormalized

     Subspace diagonalization in iterative solution of the eigenvalue problem:
     scalapack distributed-memory algorithm (size of sub-group:  2*  2 procs)

 
     Parallelization info
     --------------------
     sticks:   dense  smooth     PW     G-vecs:    dense   smooth      PW
     Min         431     247     69                18759     8095    1209
     Max         432     248     70                18762     8122    1212
     Sum        5183    2971    835               225123    97307   14517
 


     bravais-lattice index     =            0
     lattice parameter (alat)  =      12.3840  a.u.
     unit-cell volume          =     669.2381 (a.u.)^3
     number of atoms/cell      =           10
     number of atomic types    =            2
     number of electrons       =       138.00
     number of Kohn-Sham states=           83
     kinetic-energy cutoff     =     105.0000  Ry
     charge density cutoff     =     735.0000  Ry
     convergence threshold     =      2.0E-09
     mixing beta               =       0.4000
     number of iterations used =            8  plain     mixing
     Exchange-correlation      = PBE ( 1  4  3  4 0 0)
     nstep                     =           50


     celldm(1)=  12.383961  celldm(2)=   0.000000  celldm(3)=   0.000000
     celldm(4)=   0.000000  celldm(5)=   0.000000  celldm(6)=   0.000000

     crystal axes: (cart. coord. in units of alat)
               a(1) = (   1.000000   0.000000   0.000000 )  
               a(2) = (   0.000000   0.579278   0.000000 )  
               a(3) = (   0.000000   0.000000   0.608296 )  

     reciprocal axes: (cart. coord. in units 2 pi/alat)
               b(1) = (  1.000000  0.000000  0.000000 )  
               b(2) = (  0.000000  1.726286  0.000000 )  
               b(3) = (  0.000000  0.000000  1.643937 )  


     PseudoPot. # 1 for Fe read from file:
     pseudo/Fe.pbe-spn-kjpaw_psl.0.2.1.UPF
     MD5 check sum: e86618425769142926afa95317d90200
     Pseudo is Projector augmented-wave + core cor, Zval = 16.0
     Generated using "atomic" code by A. Dal Corso  v.5.0.99 svn rev. 10869
     Shape of augmentation charge: PSQ
     Using radial grid of 1191 points,  6 beta functions with: 
                l(1) =   0
                l(2) =   0
                l(3) =   1
                l(4) =   1
                l(5) =   2
                l(6) =   2
     Q(r) pseudized with 0 coefficients 


     PseudoPot. # 2 for  N read from file:
     pseudo/N.pbe-n-radius_5.UPF
     MD5 check sum: 16739722b17309cd8fe442a2ace49922
     Pseudo is Ultrasoft + core correction, Zval =  5.0
     Generated using "atomic" code by A. Dal Corso  v.5.1
     Using radial grid of 1085 points,  4 beta functions with: 
                l(1) =   0
                l(2) =   0
                l(3) =   1
                l(4) =   1
     Q(r) pseudized with 0 coefficients 


     atomic species   valence    mass     pseudopotential
        Fe            16.00    55.84500     Fe( 1.00)
        N              5.00    14.00650      N( 1.00)

      8 Sym. Ops., with inversion, found ( 4 have fractional translation)


                                    s                        frac. trans.

      isym =  1     identity                                     

 cryst.   s( 1) = (     1          0          0      )
                  (     0          1          0      )
                  (     0          0          1      )

 cart.    s( 1) = (  1.0000000  0.0000000  0.0000000 )
                  (  0.0000000  1.0000000  0.0000000 )
                  (  0.0000000  0.0000000  1.0000000 )


      isym =  2     180 deg rotation - cart. axis [0,0,1]        

 cryst.   s( 2) = (    -1          0          0      )    f =(  0.5000000 )
                  (     0         -1          0      )       (  0.0000000 )
                  (     0          0          1      )       (  0.0000000 )

 cart.    s( 2) = ( -1.0000000  0.0000000  0.0000000 )    f =(  0.5000000 )
                  (  0.0000000 -1.0000000  0.0000000 )       (  0.0000000 )
                  (  0.0000000  0.0000000  1.0000000 )       (  0.0000000 )


      isym =  3     180 deg rotation - cart. axis [0,1,0]        

 cryst.   s( 3) = (    -1          0          0      )
                  (     0          1          0      )
                  (     0          0         -1      )

 cart.    s( 3) = ( -1.0000000  0.0000000  0.0000000 )
                  (  0.0000000  1.0000000  0.0000000 )
                  (  0.0000000  0.0000000 -1.0000000 )


      isym =  4     180 deg rotation - cart. axis [1,0,0]        

 cryst.   s( 4) = (     1          0          0      )    f =( -0.5000000 )
                  (     0         -1          0      )       (  0.0000000 )
                  (     0          0         -1      )       (  0.0000000 )

 cart.    s( 4) = (  1.0000000  0.0000000  0.0000000 )    f =( -0.5000000 )
                  (  0.0000000 -1.0000000  0.0000000 )       (  0.0000000 )
                  (  0.0000000  0.0000000 -1.0000000 )       (  0.0000000 )


      isym =  5     inversion                                    

 cryst.   s( 5) = (    -1          0          0      )
                  (     0         -1          0      )
                  (     0          0         -1      )

 cart.    s( 5) = ( -1.0000000  0.0000000  0.0000000 )
                  (  0.0000000 -1.0000000  0.0000000 )
                  (  0.0000000  0.0000000 -1.0000000 )


      isym =  6     inv. 180 deg rotation - cart. axis [0,0,1]   

 cryst.   s( 6) = (     1          0          0      )    f =( -0.5000000 )
                  (     0          1          0      )       (  0.0000000 )
                  (     0          0         -1      )       (  0.0000000 )

 cart.    s( 6) = (  1.0000000  0.0000000  0.0000000 )    f =( -0.5000000 )
                  (  0.0000000  1.0000000  0.0000000 )       (  0.0000000 )
                  (  0.0000000  0.0000000 -1.0000000 )       (  0.0000000 )


      isym =  7     inv. 180 deg rotation - cart. axis [0,1,0]   

 cryst.   s( 7) = (     1          0          0      )
                  (     0         -1          0      )
                  (     0          0          1      )

 cart.    s( 7) = (  1.0000000  0.0000000  0.0000000 )
                  (  0.0000000 -1.0000000  0.0000000 )
                  (  0.0000000  0.0000000  1.0000000 )


      isym =  8     inv. 180 deg rotation - cart. axis [1,0,0]   

 cryst.   s( 8) = (    -1          0          0      )    f =(  0.5000000 )
                  (     0          1          0      )       (  0.0000000 )
                  (     0          0          1      )       (  0.0000000 )

 cart.    s( 8) = ( -1.0000000  0.0000000  0.0000000 )    f =(  0.5000000 )
                  (  0.0000000  1.0000000  0.0000000 )       (  0.0000000 )
                  (  0.0000000  0.0000000  1.0000000 )       (  0.0000000 )


     point group D_2h (mmm) 
     there are  8 classes
     the character table:

       E     C2    C2'   C2''  i     s_v   s_v'  s_v''
A_g    1.00  1.00  1.00  1.00  1.00  1.00  1.00  1.00
B_1g   1.00  1.00 -1.00 -1.00  1.00  1.00 -1.00 -1.00
B_2g   1.00 -1.00  1.00 -1.00  1.00 -1.00  1.00 -1.00
B_3g   1.00 -1.00 -1.00  1.00  1.00 -1.00 -1.00  1.00
A_u    1.00  1.00  1.00  1.00 -1.00 -1.00 -1.00 -1.00
B_1u   1.00  1.00 -1.00 -1.00 -1.00 -1.00  1.00  1.00
B_2u   1.00 -1.00  1.00 -1.00 -1.00  1.00 -1.00  1.00
B_3u   1.00 -1.00 -1.00  1.00 -1.00  1.00  1.00 -1.00

     the symmetry operations in each class and the name of the first element:

     E        1
          identity                                               
     C2       2
          180 deg rotation - cart. axis [0,0,1]                  
     C2'      3
          180 deg rotation - cart. axis [0,1,0]                  
     C2''     4
          180 deg rotation - cart. axis [1,0,0]                  
     i        5
          inversion                                              
     s_v      6
          inv. 180 deg rotation - cart. axis [0,0,1]             
     s_v'     7
          inv. 180 deg rotation - cart. axis [0,1,0]             
     s_v''    8
          inv. 180 deg rotation - cart. axis [1,0,0]             

   Cartesian axes

     site n.     atom                  positions (alat units)
         1           Fe  tau(   1) = (   0.2500000   0.0000000   0.2456055  )
         2           Fe  tau(   2) = (   0.7500000   0.0000000   0.3626902  )
         3           Fe  tau(   3) = (   0.2500000   0.2896391   0.5497533  )
         4           Fe  tau(   4) = (   0.7500000   0.2896391   0.0585424  )
         5           Fe  tau(   5) = (   0.0000000   0.2896391   0.3041478  )
         6           Fe  tau(   6) = (   0.5000000   0.2896391   0.3041478  )
         7           Fe  tau(   7) = (   0.0000000   0.0000000   0.0000000  )
         8           Fe  tau(   8) = (   0.5000000   0.0000000   0.0000000  )
         9           N   tau(   9) = (   0.2500000   0.2896391   0.2456055  )
        10           N   tau(  10) = (   0.7500000   0.2896391   0.3626902  )

   Crystallographic axes

     site n.     atom                  positions (cryst. coord.)
         1           Fe  tau(   1) = (  0.2500000  0.0000000  0.4037600  )
         2           Fe  tau(   2) = (  0.7500000  0.0000000  0.5962400  )
         3           Fe  tau(   3) = (  0.2500000  0.5000000  0.9037600  )
         4           Fe  tau(   4) = (  0.7500000  0.5000000  0.0962400  )
         5           Fe  tau(   5) = (  0.0000000  0.5000000  0.5000000  )
         6           Fe  tau(   6) = (  0.5000000  0.5000000  0.5000000  )
         7           Fe  tau(   7) = (  0.0000000  0.0000000  0.0000000  )
         8           Fe  tau(   8) = (  0.5000000  0.0000000  0.0000000  )
         9           N   tau(   9) = (  0.2500000  0.5000000  0.4037600  )
        10           N   tau(  10) = (  0.7500000  0.5000000  0.5962400  )

     number of k points=    75  Marzari-Vanderbilt smearing, width (Ry)=  0.0147
                       cart. coord. in units 2pi/alat
        k(    1) = (   0.0000000   0.0000000   0.0000000), wk =   0.0062500
        k(    2) = (   0.0000000   0.0000000   0.2054922), wk =   0.0125000
        k(    3) = (   0.0000000   0.0000000   0.4109844), wk =   0.0125000
        k(    4) = (   0.0000000   0.0000000   0.6164765), wk =   0.0125000
        k(    5) = (   0.0000000   0.0000000  -0.8219687), wk =   0.0062500
        k(    6) = (   0.0000000   0.2157858   0.0000000), wk =   0.0125000
        k(    7) = (   0.0000000   0.2157858   0.2054922), wk =   0.0250000
        k(    8) = (   0.0000000   0.2157858   0.4109844), wk =   0.0250000
        k(    9) = (   0.0000000   0.2157858   0.6164765), wk =   0.0250000
        k(   10) = (   0.0000000   0.2157858  -0.8219687), wk =   0.0125000
        k(   11) = (   0.0000000   0.4315715   0.0000000), wk =   0.0125000
        k(   12) = (   0.0000000   0.4315715   0.2054922), wk =   0.0250000
        k(   13) = (   0.0000000   0.4315715   0.4109844), wk =   0.0250000
        k(   14) = (   0.0000000   0.4315715   0.6164765), wk =   0.0250000
        k(   15) = (   0.0000000   0.4315715  -0.8219687), wk =   0.0125000
        k(   16) = (   0.0000000   0.6473573   0.0000000), wk =   0.0125000
        k(   17) = (   0.0000000   0.6473573   0.2054922), wk =   0.0250000
        k(   18) = (   0.0000000   0.6473573   0.4109844), wk =   0.0250000
        k(   19) = (   0.0000000   0.6473573   0.6164765), wk =   0.0250000
        k(   20) = (   0.0000000   0.6473573  -0.8219687), wk =   0.0125000
        k(   21) = (   0.0000000  -0.8631430   0.0000000), wk =   0.0062500
        k(   22) = (   0.0000000  -0.8631430   0.2054922), wk =   0.0125000
        k(   23) = (   0.0000000  -0.8631430   0.4109844), wk =   0.0125000
        k(   24) = (   0.0000000  -0.8631430   0.6164765), wk =   0.0125000
        k(   25) = (   0.0000000  -0.8631430  -0.8219687), wk =   0.0062500
        k(   26) = (   0.2000000   0.0000000   0.0000000), wk =   0.0125000
        k(   27) = (   0.2000000   0.0000000   0.2054922), wk =   0.0250000
        k(   28) = (   0.2000000   0.0000000   0.4109844), wk =   0.0250000
        k(   29) = (   0.2000000   0.0000000   0.6164765), wk =   0.0250000
        k(   30) = (   0.2000000   0.0000000  -0.8219687), wk =   0.0125000
        k(   31) = (   0.2000000   0.2157858   0.0000000), wk =   0.0250000
        k(   32) = (   0.2000000   0.2157858   0.2054922), wk =   0.0500000
        k(   33) = (   0.2000000   0.2157858   0.4109844), wk =   0.0500000
        k(   34) = (   0.2000000   0.2157858   0.6164765), wk =   0.0500000
        k(   35) = (   0.2000000   0.2157858  -0.8219687), wk =   0.0250000
        k(   36) = (   0.2000000   0.4315715   0.0000000), wk =   0.0250000
        k(   37) = (   0.2000000   0.4315715   0.2054922), wk =   0.0500000
        k(   38) = (   0.2000000   0.4315715   0.4109844), wk =   0.0500000
        k(   39) = (   0.2000000   0.4315715   0.6164765), wk =   0.0500000
        k(   40) = (   0.2000000   0.4315715  -0.8219687), wk =   0.0250000
        k(   41) = (   0.2000000   0.6473573   0.0000000), wk =   0.0250000
        k(   42) = (   0.2000000   0.6473573   0.2054922), wk =   0.0500000
        k(   43) = (   0.2000000   0.6473573   0.4109844), wk =   0.0500000
        k(   44) = (   0.2000000   0.6473573   0.6164765), wk =   0.0500000
        k(   45) = (   0.2000000   0.6473573  -0.8219687), wk =   0.0250000
        k(   46) = (   0.2000000  -0.8631430   0.0000000), wk =   0.0125000
        k(   47) = (   0.2000000  -0.8631430   0.2054922), wk =   0.0250000
        k(   48) = (   0.2000000  -0.8631430   0.4109844), wk =   0.0250000
        k(   49) = (   0.2000000  -0.8631430   0.6164765), wk =   0.0250000
        k(   50) = (   0.2000000  -0.8631430  -0.8219687), wk =   0.0125000
        k(   51) = (   0.4000000   0.0000000   0.0000000), wk =   0.0125000
        k(   52) = (   0.4000000   0.0000000   0.2054922), wk =   0.0250000
        k(   53) = (   0.4000000   0.0000000   0.4109844), wk =   0.0250000
        k(   54) = (   0.4000000   0.0000000   0.6164765), wk =   0.0250000
        k(   55) = (   0.4000000   0.0000000  -0.8219687), wk =   0.0125000
        k(   56) = (   0.4000000   0.2157858   0.0000000), wk =   0.0250000
        k(   57) = (   0.4000000   0.2157858   0.2054922), wk =   0.0500000
        k(   58) = (   0.4000000   0.2157858   0.4109844), wk =   0.0500000
        k(   59) = (   0.4000000   0.2157858   0.6164765), wk =   0.0500000
        k(   60) = (   0.4000000   0.2157858  -0.8219687), wk =   0.0250000
        k(   61) = (   0.4000000   0.4315715   0.0000000), wk =   0.0250000
        k(   62) = (   0.4000000   0.4315715   0.2054922), wk =   0.0500000
        k(   63) = (   0.4000000   0.4315715   0.4109844), wk =   0.0500000
        k(   64) = (   0.4000000   0.4315715   0.6164765), wk =   0.0500000
        k(   65) = (   0.4000000   0.4315715  -0.8219687), wk =   0.0250000
        k(   66) = (   0.4000000   0.6473573   0.0000000), wk =   0.0250000
        k(   67) = (   0.4000000   0.6473573   0.2054922), wk =   0.0500000
        k(   68) = (   0.4000000   0.6473573   0.4109844), wk =   0.0500000
        k(   69) = (   0.4000000   0.6473573   0.6164765), wk =   0.0500000
        k(   70) = (   0.4000000   0.6473573  -0.8219687), wk =   0.0250000
        k(   71) = (   0.4000000  -0.8631430   0.0000000), wk =   0.0125000
        k(   72) = (   0.4000000  -0.8631430   0.2054922), wk =   0.0250000
        k(   73) = (   0.4000000  -0.8631430   0.4109844), wk =   0.0250000
        k(   74) = (   0.4000000  -0.8631430   0.6164765), wk =   0.0250000
        k(   75) = (   0.4000000  -0.8631430  -0.8219687), wk =   0.0125000

                       cryst. coord.
        k(    1) = (   0.0000000   0.0000000   0.0000000), wk =   0.0062500
        k(    2) = (   0.0000000   0.0000000   0.1250000), wk =   0.0125000
        k(    3) = (   0.0000000   0.0000000   0.2500000), wk =   0.0125000
        k(    4) = (   0.0000000   0.0000000   0.3750000), wk =   0.0125000
        k(    5) = (   0.0000000   0.0000000  -0.5000000), wk =   0.0062500
        k(    6) = (   0.0000000   0.1250000   0.0000000), wk =   0.0125000
        k(    7) = (   0.0000000   0.1250000   0.1250000), wk =   0.0250000
        k(    8) = (   0.0000000   0.1250000   0.2500000), wk =   0.0250000
        k(    9) = (   0.0000000   0.1250000   0.3750000), wk =   0.0250000
        k(   10) = (   0.0000000   0.1250000  -0.5000000), wk =   0.0125000
        k(   11) = (   0.0000000   0.2500000   0.0000000), wk =   0.0125000
        k(   12) = (   0.0000000   0.2500000   0.1250000), wk =   0.0250000
        k(   13) = (   0.0000000   0.2500000   0.2500000), wk =   0.0250000
        k(   14) = (   0.0000000   0.2500000   0.3750000), wk =   0.0250000
        k(   15) = (   0.0000000   0.2500000  -0.5000000), wk =   0.0125000
        k(   16) = (   0.0000000   0.3750000   0.0000000), wk =   0.0125000
        k(   17) = (   0.0000000   0.3750000   0.1250000), wk =   0.0250000
        k(   18) = (   0.0000000   0.3750000   0.2500000), wk =   0.0250000
        k(   19) = (   0.0000000   0.3750000   0.3750000), wk =   0.0250000
        k(   20) = (   0.0000000   0.3750000  -0.5000000), wk =   0.0125000
        k(   21) = (   0.0000000  -0.5000000   0.0000000), wk =   0.0062500
        k(   22) = (   0.0000000  -0.5000000   0.1250000), wk =   0.0125000
        k(   23) = (   0.0000000  -0.5000000   0.2500000), wk =   0.0125000
        k(   24) = (   0.0000000  -0.5000000   0.3750000), wk =   0.0125000
        k(   25) = (   0.0000000  -0.5000000  -0.5000000), wk =   0.0062500
        k(   26) = (   0.2000000   0.0000000   0.0000000), wk =   0.0125000
        k(   27) = (   0.2000000   0.0000000   0.1250000), wk =   0.0250000
        k(   28) = (   0.2000000   0.0000000   0.2500000), wk =   0.0250000
        k(   29) = (   0.2000000   0.0000000   0.3750000), wk =   0.0250000
        k(   30) = (   0.2000000   0.0000000  -0.5000000), wk =   0.0125000
        k(   31) = (   0.2000000   0.1250000   0.0000000), wk =   0.0250000
        k(   32) = (   0.2000000   0.1250000   0.1250000), wk =   0.0500000
        k(   33) = (   0.2000000   0.1250000   0.2500000), wk =   0.0500000
        k(   34) = (   0.2000000   0.1250000   0.3750000), wk =   0.0500000
        k(   35) = (   0.2000000   0.1250000  -0.5000000), wk =   0.0250000
        k(   36) = (   0.2000000   0.2500000   0.0000000), wk =   0.0250000
        k(   37) = (   0.2000000   0.2500000   0.1250000), wk =   0.0500000
        k(   38) = (   0.2000000   0.2500000   0.2500000), wk =   0.0500000
        k(   39) = (   0.2000000   0.2500000   0.3750000), wk =   0.0500000
        k(   40) = (   0.2000000   0.2500000  -0.5000000), wk =   0.0250000
        k(   41) = (   0.2000000   0.3750000   0.0000000), wk =   0.0250000
        k(   42) = (   0.2000000   0.3750000   0.1250000), wk =   0.0500000
        k(   43) = (   0.2000000   0.3750000   0.2500000), wk =   0.0500000
        k(   44) = (   0.2000000   0.3750000   0.3750000), wk =   0.0500000
        k(   45) = (   0.2000000   0.3750000  -0.5000000), wk =   0.0250000
        k(   46) = (   0.2000000  -0.5000000   0.0000000), wk =   0.0125000
        k(   47) = (   0.2000000  -0.5000000   0.1250000), wk =   0.0250000
        k(   48) = (   0.2000000  -0.5000000   0.2500000), wk =   0.0250000
        k(   49) = (   0.2000000  -0.5000000   0.3750000), wk =   0.0250000
        k(   50) = (   0.2000000  -0.5000000  -0.5000000), wk =   0.0125000
        k(   51) = (   0.4000000   0.0000000   0.0000000), wk =   0.0125000
        k(   52) = (   0.4000000   0.0000000   0.1250000), wk =   0.0250000
        k(   53) = (   0.4000000   0.0000000   0.2500000), wk =   0.0250000
        k(   54) = (   0.4000000   0.0000000   0.3750000), wk =   0.0250000
        k(   55) = (   0.4000000   0.0000000  -0.5000000), wk =   0.0125000
        k(   56) = (   0.4000000   0.1250000   0.0000000), wk =   0.0250000
        k(   57) = (   0.4000000   0.1250000   0.1250000), wk =   0.0500000
        k(   58) = (   0.4000000   0.1250000   0.2500000), wk =   0.0500000
        k(   59) = (   0.4000000   0.1250000   0.3750000), wk =   0.0500000
        k(   60) = (   0.4000000   0.1250000  -0.5000000), wk =   0.0250000
        k(   61) = (   0.4000000   0.2500000   0.0000000), wk =   0.0250000
        k(   62) = (   0.4000000   0.2500000   0.1250000), wk =   0.0500000
        k(   63) = (   0.4000000   0.2500000   0.2500000), wk =   0.0500000
        k(   64) = (   0.4000000   0.2500000   0.3750000), wk =   0.0500000
        k(   65) = (   0.4000000   0.2500000  -0.5000000), wk =   0.0250000
        k(   66) = (   0.4000000   0.3750000   0.0000000), wk =   0.0250000
        k(   67) = (   0.4000000   0.3750000   0.1250000), wk =   0.0500000
        k(   68) = (   0.4000000   0.3750000   0.2500000), wk =   0.0500000
        k(   69) = (   0.4000000   0.3750000   0.3750000), wk =   0.0500000
        k(   70) = (   0.4000000   0.3750000  -0.5000000), wk =   0.0250000
        k(   71) = (   0.4000000  -0.5000000   0.0000000), wk =   0.0125000
        k(   72) = (   0.4000000  -0.5000000   0.1250000), wk =   0.0250000
        k(   73) = (   0.4000000  -0.5000000   0.2500000), wk =   0.0250000
        k(   74) = (   0.4000000  -0.5000000   0.3750000), wk =   0.0250000
        k(   75) = (   0.4000000  -0.5000000  -0.5000000), wk =   0.0125000

     Dense  grid:   225123 G-vectors     FFT dimensions: ( 108,  64,  72)

     Smooth grid:    97307 G-vectors     FFT dimensions: (  81,  48,  50)

     Largest allocated arrays     est. size (Mb)     dimensions
        Kohn-Sham Wavefunctions         1.29 Mb     (    1022,   83)
        NL pseudopotentials             2.50 Mb     (    1022,  160)
        Each V/rho on FFT grid          0.63 Mb     (   41472)
        Each G-vector array             0.14 Mb     (   18762)
        G-vector shells                 0.14 Mb     (   18762)
     Largest temporary arrays     est. size (Mb)     dimensions
        Auxiliary wavefunctions         5.18 Mb     (    1022,  332)
        Each subspace H/S matrix        0.42 Mb     (     166,  166)
        Each <psi_i|beta_j> matrix      0.20 Mb     (     160,   83)
        Arrays for rho mixing           5.06 Mb     (   41472,    8)

     Check: negative/imaginary core charge=   -0.000028    0.000000

     Initial potential from superposition of free atoms

     starting charge  137.99648, renormalised to  138.00000
     Starting wfc are  112 randomized atomic wfcs
     Checking if some PAW data can be deallocated... 
       node   10, deallocated PAW data for type:  1
       node   11, deallocated PAW data for type:  1

     total cpu time spent up to now is       11.0 secs

     per-process dynamical memory:   150.4 Mb

     Self-consistent Calculation

     iteration #  1     ecut=   105.00 Ry     beta=0.40
     Davidson diagonalization with overlap
     ethr =  1.00E-02,  avg # of iterations =  2.3

     Threshold (ethr) on eigenvalues was too large:
     Diagonalizing with lowered threshold

     Davidson diagonalization with overlap
     ethr =  7.53E-04,  avg # of iterations =  3.9

     total cpu time spent up to now is       49.7 secs

     total energy              =   -2673.79261946 Ry
     Harris-Foulkes estimate   =   -2674.28999670 Ry
     estimated scf accuracy    <       0.89304878 Ry

     iteration #  2     ecut=   105.00 Ry     beta=0.40
     Davidson diagonalization with overlap
     ethr =  6.47E-04,  avg # of iterations =  3.9

     total cpu time spent up to now is       74.1 secs

     total energy              =   -2673.11735979 Ry
     Harris-Foulkes estimate   =   -2674.77657172 Ry
     estimated scf accuracy    <      16.66087331 Ry

     iteration #  3     ecut=   105.00 Ry     beta=0.40
     Davidson diagonalization with overlap
     ethr =  6.47E-04,  avg # of iterations =  3.5

     total cpu time spent up to now is       96.1 secs

     total energy              =   -2673.84232330 Ry
     Harris-Foulkes estimate   =   -2674.37346913 Ry
     estimated scf accuracy    <       5.13165470 Ry

     iteration #  4     ecut=   105.00 Ry     beta=0.40
     Davidson diagonalization with overlap
     ethr =  6.47E-04,  avg # of iterations =  2.1

     total cpu time spent up to now is      114.4 secs

     total energy              =   -2673.87469332 Ry
     Harris-Foulkes estimate   =   -2674.49412616 Ry
     estimated scf accuracy    <       9.42323373 Ry

     iteration #  5     ecut=   105.00 Ry     beta=0.40
     Davidson diagonalization with overlap
     ethr =  6.47E-04,  avg # of iterations =  2.0

     total cpu time spent up to now is      131.4 secs

     total energy              =   -2674.10668632 Ry
     Harris-Foulkes estimate   =   -2674.15667216 Ry
     estimated scf accuracy    <       0.65540143 Ry

     iteration #  6     ecut=   105.00 Ry     beta=0.40
     Davidson diagonalization with overlap
     ethr =  4.75E-04,  avg # of iterations =  1.0

     total cpu time spent up to now is      146.7 secs

     total energy              =   -2674.13211739 Ry
     Harris-Foulkes estimate   =   -2674.14866340 Ry
     estimated scf accuracy    <       0.27326332 Ry

     iteration #  7     ecut=   105.00 Ry     beta=0.40
     Davidson diagonalization with overlap
     ethr =  1.98E-04,  avg # of iterations =  1.0

     total cpu time spent up to now is      162.1 secs

     total energy              =   -2674.13845742 Ry
     Harris-Foulkes estimate   =   -2674.13977665 Ry
     estimated scf accuracy    <       0.00858135 Ry

     iteration #  8     ecut=   105.00 Ry     beta=0.40
     Davidson diagonalization with overlap
     ethr =  6.22E-06,  avg # of iterations =  4.4

     total cpu time spent up to now is      184.8 secs

     total energy              =   -2674.13956029 Ry
     Harris-Foulkes estimate   =   -2674.13986803 Ry
     estimated scf accuracy    <       0.00489996 Ry

     iteration #  9     ecut=   105.00 Ry     beta=0.40
     Davidson diagonalization with overlap
     ethr =  3.55E-06,  avg # of iterations =  1.1

     total cpu time spent up to now is      200.4 secs

     total energy              =   -2674.13975322 Ry
     Harris-Foulkes estimate   =   -2674.13979722 Ry
     estimated scf accuracy    <       0.00065926 Ry

     iteration # 10     ecut=   105.00 Ry     beta=0.40
     Davidson diagonalization with overlap
     ethr =  4.78E-07,  avg # of iterations =  2.6

     total cpu time spent up to now is      218.3 secs

     total energy              =   -2674.13980696 Ry
     Harris-Foulkes estimate   =   -2674.13981205 Ry
     estimated scf accuracy    <       0.00008917 Ry

     iteration # 11     ecut=   105.00 Ry     beta=0.40
     Davidson diagonalization with overlap
     ethr =  6.46E-08,  avg # of iterations =  3.5

     total cpu time spent up to now is      243.2 secs

     total energy              =   -2674.13983164 Ry
     Harris-Foulkes estimate   =   -2674.13983202 Ry
     estimated scf accuracy    <       0.00000243 Ry

     iteration # 12     ecut=   105.00 Ry     beta=0.40
     Davidson diagonalization with overlap
     ethr =  1.76E-09,  avg # of iterations =  2.9

     total cpu time spent up to now is      266.5 secs

     total energy              =   -2674.13983216 Ry
     Harris-Foulkes estimate   =   -2674.13983220 Ry
     estimated scf accuracy    <       0.00000033 Ry

     iteration # 13     ecut=   105.00 Ry     beta=0.40
     Davidson diagonalization with overlap
     ethr =  2.42E-10,  avg # of iterations =  2.0

     total cpu time spent up to now is      283.7 secs

     total energy              =   -2674.13983219 Ry
     Harris-Foulkes estimate   =   -2674.13983221 Ry
     estimated scf accuracy    <       0.00000020 Ry

     iteration # 14     ecut=   105.00 Ry     beta=0.40
     Davidson diagonalization with overlap
     ethr =  1.43E-10,  avg # of iterations =  1.0

     total cpu time spent up to now is      299.1 secs

     total energy              =   -2674.13983221 Ry
     Harris-Foulkes estimate   =   -2674.13983221 Ry
     estimated scf accuracy    <          7.1E-09 Ry

     iteration # 15     ecut=   105.00 Ry     beta=0.40
     Davidson diagonalization with overlap
     ethr =  5.15E-12,  avg # of iterations =  3.8

     total cpu time spent up to now is      334.2 secs

     total energy              =   -2674.13983221 Ry
     Harris-Foulkes estimate   =   -2674.13983221 Ry
     estimated scf accuracy    <          3.3E-09 Ry

     iteration # 16     ecut=   105.00 Ry     beta=0.40
     Davidson diagonalization with overlap
     ethr =  2.39E-12,  avg # of iterations =  1.0

     total cpu time spent up to now is      349.7 secs

     total energy              =   -2674.13983221 Ry
     Harris-Foulkes estimate   =   -2674.13983221 Ry
     estimated scf accuracy    <          6.0E-09 Ry

     iteration # 17     ecut=   105.00 Ry     beta=0.40
     Davidson diagonalization with overlap
     ethr =  2.39E-12,  avg # of iterations =  1.0

     total cpu time spent up to now is      365.2 secs

     End of self-consistent calculation

          k = 0.0000 0.0000 0.0000 ( 12155 PWs)   bands (ev):

   -68.8281 -68.8185 -68.6362 -68.6361 -68.4740 -68.4707 -68.1939 -68.1889
   -35.5762 -35.5543 -35.0325 -34.9887 -34.8754 -34.7690 -34.7672 -34.7282
   -34.7191 -34.6584 -34.6323 -34.6243 -34.5872 -34.5418 -34.5090 -34.4854
   -34.4852 -34.4112 -34.3437 -34.3238 -34.1784 -34.1669 -34.1623 -34.1349
     0.2725   1.5685   9.8487  11.1182  11.6814  11.9056  12.9357  13.0352
    13.7671  14.1167  14.4035  14.5070  14.5546  14.6426  14.6776  14.7180
    15.6975  15.7508  15.7655  15.8623  16.1110  16.2714  16.7731  16.8783
    17.1610  17.4374  17.6102  17.6372  17.6983  17.9456  17.9487  18.1408
    18.2035  18.3129  18.5088  18.6839  18.7160  18.8051  18.9670  18.9732
    19.0756  19.0842  19.1134  19.2701  19.6461  19.7030  19.8199  19.8943
    21.1038  22.0306  23.1016

     occupation numbers 
     1.0000   1.0000   1.0000   1.0000   1.0000   1.0000   1.0000   1.0000
     1.0000   1.0000   1.0000   1.0000   1.0000   1.0000   1.0000   1.0000
     1.0000   1.0000   1.0000   1.0000   1.0000   1.0000   1.0000   1.0000
     1.0000   1.0000   1.0000   1.0000   1.0000   1.0000   1.0000   1.0000
     1.0000   1.0000   1.0000   1.0000   1.0000   1.0000   1.0000   1.0000
     1.0000   1.0000   1.0000   1.0000   1.0000   1.0000   1.0000   1.0000
     1.0000   1.0000   1.0000   1.0000   1.0000   1.0000   1.0000   1.0000
     1.0000   1.0000   1.0000   1.0000   1.0000   1.0003   1.0003   1.0151
     1.0353   1.0808   0.7968   0.2063   0.1395   0.0366   0.0012   0.0010
     0.0001   0.0000   0.0000   0.0000   0.0000   0.0000   0.0000   0.0000
     0.0000   0.0000   0.0000

          k = 0.0000 0.0000 0.2055 ( 12157 PWs)   bands (ev):

   -68.8278 -68.8185 -68.6373 -68.6350 -68.4744 -68.4705 -68.1939 -68.1890
   -35.5786 -35.5536 -35.0314 -34.9883 -34.8677 -34.7707 -34.7642 -34.7334
   -34.7214 -34.6579 -34.6292 -34.6241 -34.5900 -34.5456 -34.5112 -34.4883
   -34.4847 -34.4052 -34.3430 -34.3247 -34.1793 -34.1674 -34.1617 -34.1350
     0.3213   1.6167   9.8484  11.0052  11.6485  11.7152  12.7708  12.9225
    13.6630  14.0818  14.4916  14.5904  14.7213  14.7623  14.8068  14.9300
    15.7367  15.7721  15.7737  15.8548  16.1035  16.3008  16.6982  16.9344
    16.9716  17.1633  17.7057  17.7181  17.7716  17.8345  18.1202  18.2120
    18.2533  18.2549  18.5164  18.6146  18.6906  18.8221  18.9325  18.9502
    18.9875  19.0469  19.0805  19.2099  19.5528  19.6975  19.7390  19.8558
    21.4059  21.9183  23.0438

     occupation numbers 
     1.0000   1.0000   1.0000   1.0000   1.0000   1.0000   1.0000   1.0000
     1.0000   1.0000   1.0000   1.0000   1.0000   1.0000   1.0000   1.0000
     1.0000   1.0000   1.0000   1.0000   1.0000   1.0000   1.0000   1.0000
     1.0000   1.0000   1.0000   1.0000   1.0000   1.0000   1.0000   1.0000
     1.0000   1.0000   1.0000   1.0000   1.0000   1.0000   1.0000   1.0000
     1.0000   1.0000   1.0000   1.0000   1.0000   1.0000   1.0000   1.0000
     1.0000   1.0000   1.0000   1.0000   1.0000   1.0000   1.0000   1.0000
     1.0000   1.0000   1.0000   1.0000   1.0000   1.0000   1.0109   1.0389
     1.0578   1.0585   0.7707   0.4106   0.1908   0.0272   0.0028   0.0018
     0.0007   0.0001   0.0001   0.0000   0.0000   0.0000   0.0000   0.0000
     0.0000   0.0000   0.0000

          k = 0.0000 0.0000 0.4110 ( 12157 PWs)   bands (ev):

   -68.8272 -68.8184 -68.6381 -68.6338 -68.4755 -68.4702 -68.1939 -68.1892
   -35.5842 -35.5519 -35.0287 -34.9874 -34.8465 -34.7740 -34.7580 -34.7460
   -34.7282 -34.6568 -34.6236 -34.6220 -34.5971 -34.5545 -34.5161 -34.4945
   -34.4837 -34.3908 -34.3420 -34.3279 -34.1811 -34.1685 -34.1600 -34.1353
     0.4432   1.7374   9.8466  10.6299  11.1861  11.5721  12.7084  12.8159
    13.4006  14.3043  14.5895  14.8323  14.8831  15.0860  15.1448  15.3257
    15.7844  15.8168  15.8511  15.8813  16.0609  16.3843  16.4578  16.6476
    16.7873  17.1004  17.5141  17.6500  17.7901  18.0238  18.0841  18.1716
    18.2025  18.4016  18.4162  18.4784  18.5818  18.7360  18.8510  18.8622
    18.8978  18.9447  19.0356  19.0809  19.5628  19.5659  19.6841  19.9355
    21.7775  22.2038  22.2787

     occupation numbers 
     1.0000   1.0000   1.0000   1.0000   1.0000   1.0000   1.0000   1.0000
     1.0000   1.0000   1.0000   1.0000   1.0000   1.0000   1.0000   1.0000
     1.0000   1.0000   1.0000   1.0000   1.0000   1.0000   1.0000   1.0000
     1.0000   1.0000   1.0000   1.0000   1.0000   1.0000   1.0000   1.0000
     1.0000   1.0000   1.0000   1.0000   1.0000   1.0000   1.0000   1.0000
     1.0000   1.0000   1.0000   1.0000   1.0000   1.0000   1.0000   1.0000
     1.0000   1.0000   1.0000   1.0000   1.0000   1.0000   1.0000   1.0000
     1.0000   1.0000   1.0000   1.0000   1.0000   1.0017   1.0058   1.0236
     1.0349   1.0481   1.0287   0.8923   0.5289   0.1067   0.0159   0.0128
     0.0061   0.0021   0.0002   0.0001   0.0000   0.0000   0.0000   0.0000
     0.0000   0.0000   0.0000

          k = 0.0000 0.0000 0.6165 ( 12146 PWs)   bands (ev):

   -68.8266 -68.8184 -68.6386 -68.6330 -68.4764 -68.4701 -68.1939 -68.1894
   -35.5898 -35.5501 -35.0259 -34.9865 -34.8180 -34.7749 -34.7599 -34.7589
   -34.7344 -34.6557 -34.6231 -34.6151 -34.6055 -34.5626 -34.5207 -34.5002
   -34.4832 -34.3754 -34.3422 -34.3335 -34.1822 -34.1697 -34.1582 -34.1355
     0.5718   1.8652   9.8433  10.2155  10.6320  11.4995  12.5394  13.2074
    13.2848  14.4937  14.6641  15.0339  15.1393  15.4540  15.4587  15.5794
    15.7567  15.8638  15.9120  15.9799  16.1851  16.1896  16.3307  16.4115
    16.4680  17.0737  17.3434  17.5343  17.8200  17.8846  17.9090  18.0064
    18.2576  18.2655  18.3322  18.3982  18.4303  18.5752  18.6932  18.7139
    18.7929  19.0118  19.0226  19.0829  19.6572  19.6703  19.7828  20.0074
    21.3622  22.0114  22.7257

     occupation numbers 
     1.0000   1.0000   1.0000   1.0000   1.0000   1.0000   1.0000   1.0000
     1.0000   1.0000   1.0000   1.0000   1.0000   1.0000   1.0000   1.0000
     1.0000   1.0000   1.0000   1.0000   1.0000   1.0000   1.0000   1.0000
     1.0000   1.0000   1.0000   1.0000   1.0000   1.0000   1.0000   1.0000
     1.0000   1.0000   1.0000   1.0000   1.0000   1.0000   1.0000   1.0000
     1.0000   1.0000   1.0000   1.0000   1.0000   1.0000   1.0000   1.0000
     1.0000   1.0000   1.0000   1.0000   1.0000   1.0000   1.0000   1.0000
     1.0000   1.0000   1.0000   1.0000   1.0000   1.0000   1.0001   1.0012
     1.0598   1.0634   1.0833   1.0519   1.0055   0.5537   0.1852   0.1434
     0.0450   0.0004   0.0003   0.0000   0.0000   0.0000   0.0000   0.0000
     0.0000   0.0000   0.0000

          k = 0.0000 0.0000-0.8220 ( 12160 PWs)   bands (ev):

   -68.8263 -68.8184 -68.6388 -68.6327 -68.4767 -68.4700 -68.1940 -68.1895
   -35.5921 -35.5494 -35.0247 -34.9861 -34.7982 -34.7715 -34.7693 -34.7693
   -34.7344 -34.6553 -34.6229 -34.6122 -34.6096 -34.5656 -34.5226 -34.5025
   -34.4830 -34.3677 -34.3426 -34.3374 -34.1825 -34.1701 -34.1574 -34.1356
     0.6273   1.9205   9.8415  10.0458  10.4063  11.4705  12.4778  13.1404
    13.7794  14.1589  14.8942  15.1118  15.3068  15.4095  15.6516  15.7334
    15.8334  15.8490  15.9333  16.0122  16.1157  16.1295  16.2391  16.4363
    16.4560  16.7804  17.4302  17.5190  17.6740  17.7194  17.8985  17.9393
    18.1482  18.2043  18.3617  18.4002  18.4869  18.4907  18.5102  18.7192
    18.7415  19.0068  19.0205  19.1544  19.6645  19.7113  19.9843  20.0355
    20.9209  22.1441  22.7974

     occupation numbers 
     1.0000   1.0000   1.0000   1.0000   1.0000   1.0000   1.0000   1.0000
     1.0000   1.0000   1.0000   1.0000   1.0000   1.0000   1.0000   1.0000
     1.0000   1.0000   1.0000   1.0000   1.0000   1.0000   1.0000   1.0000
     1.0000   1.0000   1.0000   1.0000   1.0000   1.0000   1.0000   1.0000
     1.0000   1.0000   1.0000   1.0000   1.0000   1.0000   1.0000   1.0000
     1.0000   1.0000   1.0000   1.0000   1.0000   1.0000   1.0000   1.0000
     1.0000   1.0000   1.0000   1.0000   1.0000   1.0000   1.0000   1.0000
     1.0000   1.0000   1.0000   1.0000   1.0000   1.0000   1.0001   1.0002
     1.0169   1.0356   1.0783   1.0496   0.8672   0.8556   0.7922   0.1338
     0.0988   0.0004   0.0003   0.0000   0.0000   0.0000   0.0000   0.0000
     0.0000   0.0000   0.0000

          k = 0.0000 0.2158 0.0000 ( 12175 PWs)   bands (ev):

   -68.8275 -68.8185 -68.6366 -68.6362 -68.4740 -68.4705 -68.1939 -68.1892
   -35.5812 -35.5531 -35.0268 -34.9849 -34.8704 -34.7676 -34.7656 -34.7292
   -34.7232 -34.6909 -34.6316 -34.5996 -34.5873 -34.5415 -34.5056 -34.4925
   -34.4908 -34.4084 -34.3395 -34.3264 -34.1754 -34.1643 -34.1618 -34.1397
     0.3412   1.6413   9.8272  11.1113  11.3906  11.8425  12.7605  12.7891
    13.8413  13.8687  14.5009  14.5720  14.6486  14.7002  14.8757  15.0430
    15.7358  15.8006  15.8093  15.8625  16.1293  16.2231  16.7787  16.8370
    17.1060  17.4591  17.4843  17.5346  17.7996  17.9566  17.9953  18.0511
    18.3568  18.4343  18.5357  18.6401  18.6421  18.7733  18.9012  18.9756
    18.9970  19.0263  19.0486  19.2526  19.5059  19.6402  19.8392  19.9335
    21.4173  22.0556  22.9003

     occupation numbers 
     1.0000   1.0000   1.0000   1.0000   1.0000   1.0000   1.0000   1.0000
     1.0000   1.0000   1.0000   1.0000   1.0000   1.0000   1.0000   1.0000
     1.0000   1.0000   1.0000   1.0000   1.0000   1.0000   1.0000   1.0000
     1.0000   1.0000   1.0000   1.0000   1.0000   1.0000   1.0000   1.0000
     1.0000   1.0000   1.0000   1.0000   1.0000   1.0000   1.0000   1.0000
     1.0000   1.0000   1.0000   1.0000   1.0000   1.0000   1.0000   1.0000
     1.0000   1.0000   1.0000   1.0000   1.0000   1.0000   1.0000   1.0000
     1.0000   1.0000   1.0000   1.0000   1.0000   1.0003   1.0009   1.0030
     1.0800   0.9979   0.7015   0.3268   0.3203   0.0616   0.0057   0.0010
     0.0006   0.0003   0.0001   0.0000   0.0000   0.0000   0.0000   0.0000
     0.0000   0.0000   0.0000

          k = 0.0000 0.2158 0.2055 ( 12163 PWs)   bands (ev):

   -68.8273 -68.8185 -68.6374 -68.6353 -68.4744 -68.4703 -68.1939 -68.1893
   -35.5837 -35.5524 -35.0261 -34.9843 -34.8631 -34.7714 -34.7627 -34.7369
   -34.7258 -34.6824 -34.6312 -34.6006 -34.5907 -34.5456 -34.5075 -34.4921
   -34.4901 -34.4035 -34.3394 -34.3272 -34.1761 -34.1637 -34.1621 -34.1397
     0.3898   1.6899   9.8235  10.9898  11.3619  11.6823  12.4332  12.8771
    13.5998  14.0483  14.5726  14.6432  14.7881  14.8186  14.9966  15.1624
    15.7451  15.7936  15.8243  15.8423  16.2043  16.2833  16.6425  16.8795
    16.9664  17.1933  17.5441  17.6324  17.8345  17.8488  18.0580  18.2046
    18.3897  18.4108  18.5422  18.5524  18.6354  18.7619  18.9023  18.9035
    19.0024  19.0030  19.0232  19.2263  19.4367  19.6098  19.7206  20.0720
    21.5700  22.0165  23.0362

     occupation numbers 
     1.0000   1.0000   1.0000   1.0000   1.0000   1.0000   1.0000   1.0000
     1.0000   1.0000   1.0000   1.0000   1.0000   1.0000   1.0000   1.0000
     1.0000   1.0000   1.0000   1.0000   1.0000   1.0000   1.0000   1.0000
     1.0000   1.0000   1.0000   1.0000   1.0000   1.0000   1.0000   1.0000
     1.0000   1.0000   1.0000   1.0000   1.0000   1.0000   1.0000   1.0000
     1.0000   1.0000   1.0000   1.0000   1.0000   1.0000   1.0000   1.0000
     1.0000   1.0000   1.0000   1.0000   1.0000   1.0000   1.0000   1.0000
     1.0000   1.0000   1.0000   1.0000   1.0000   1.0000   1.0035   1.0358
     1.0603   1.0364   0.6775   0.6396   0.3415   0.0734   0.0055   0.0054
     0.0005   0.0005   0.0003   0.0000   0.0000   0.0000   0.0000   0.0000
     0.0000   0.0000   0.0000

          k = 0.0000 0.2158 0.4110 ( 12168 PWs)   bands (ev):

   -68.8267 -68.8184 -68.6382 -68.6342 -68.4753 -68.4702 -68.1939 -68.1895
   -35.5896 -35.5507 -35.0243 -34.9828 -34.8432 -34.7790 -34.7567 -34.7517
   -34.7330 -34.6658 -34.6303 -34.6041 -34.5988 -34.5556 -34.5103 -34.4949
   -34.4863 -34.3914 -34.3396 -34.3302 -34.1775 -34.1632 -34.1616 -34.1396
     0.5113   1.8119   9.8136  10.6003  11.1866  11.2925  12.1931  13.0047
    13.3321  14.3044  14.6626  14.8822  14.9906  15.0899  15.3050  15.3751
    15.6653  15.8649  15.9215  15.9562  16.2359  16.3745  16.4536  16.7187
    16.7384  17.0058  17.4947  17.6483  17.6562  17.9164  18.0442  18.2696
    18.2732  18.4243  18.4795  18.5367  18.5651  18.7229  18.8054  18.8458
    18.8889  18.9785  19.0829  19.0843  19.3801  19.5828  19.6501  20.2612
    21.7404  22.3295  22.3737

     occupation numbers 
     1.0000   1.0000   1.0000   1.0000   1.0000   1.0000   1.0000   1.0000
     1.0000   1.0000   1.0000   1.0000   1.0000   1.0000   1.0000   1.0000
     1.0000   1.0000   1.0000   1.0000   1.0000   1.0000   1.0000   1.0000
     1.0000   1.0000   1.0000   1.0000   1.0000   1.0000   1.0000   1.0000
     1.0000   1.0000   1.0000   1.0000   1.0000   1.0000   1.0000   1.0000
     1.0000   1.0000   1.0000   1.0000   1.0000   1.0000   1.0000   1.0000
     1.0000   1.0000   1.0000   1.0000   1.0000   1.0000   1.0000   1.0000
     1.0000   1.0000   1.0000   1.0000   1.0000   1.0001   1.0026   1.0653
     1.0669   1.0158   0.8891   0.6979   0.5916   0.1275   0.0365   0.0175
     0.0074   0.0009   0.0000   0.0000   0.0000   0.0000   0.0000   0.0000
     0.0000   0.0000   0.0000

          k = 0.0000 0.2158 0.6165 ( 12168 PWs)   bands (ev):

   -68.8261 -68.8184 -68.6386 -68.6335 -68.4761 -68.4701 -68.1939 -68.1897
   -35.5955 -35.5490 -35.0225 -34.9814 -34.8163 -34.7845 -34.7652 -34.7581
   -34.7388 -34.6499 -34.6292 -34.6099 -34.6073 -34.5657 -34.5122 -34.4976
   -34.4840 -34.3779 -34.3405 -34.3352 -34.1783 -34.1639 -34.1597 -34.1395
     0.6395   1.9412   9.8025  10.1762  10.6449  11.2165  12.1130  13.1498
    13.4307  14.5581  14.6255  15.0973  15.1848  15.3502  15.4432  15.6546
    15.7219  15.9490  15.9723  16.1677  16.2199  16.2612  16.3961  16.4129
    16.6639  16.8926  17.2298  17.6124  17.7266  17.8345  17.8498  18.1841
    18.1882  18.2862  18.3649  18.4870  18.5301  18.6293  18.7307  18.7833
    18.7843  18.9488  19.0293  19.0648  19.3917  19.6223  19.8508  20.4412
    21.3560  21.8916  22.8033

     occupation numbers 
     1.0000   1.0000   1.0000   1.0000   1.0000   1.0000   1.0000   1.0000
     1.0000   1.0000   1.0000   1.0000   1.0000   1.0000   1.0000   1.0000
     1.0000   1.0000   1.0000   1.0000   1.0000   1.0000   1.0000   1.0000
     1.0000   1.0000   1.0000   1.0000   1.0000   1.0000   1.0000   1.0000
     1.0000   1.0000   1.0000   1.0000   1.0000   1.0000   1.0000   1.0000
     1.0000   1.0000   1.0000   1.0000   1.0000   1.0000   1.0000   1.0000
     1.0000   1.0000   1.0000   1.0000   1.0000   1.0000   1.0000   1.0000
     1.0000   1.0000   1.0000   1.0000   1.0000   1.0000   1.0000   1.0279
     1.0294   1.0723   1.0770   0.8670   0.7220   0.3612   0.1148   0.0525
     0.0517   0.0019   0.0002   0.0001   0.0000   0.0000   0.0000   0.0000
     0.0000   0.0000   0.0000

          k = 0.0000 0.2158-0.8220 ( 12136 PWs)   bands (ev):

   -68.8258 -68.8184 -68.6388 -68.6332 -68.4764 -68.4700 -68.1939 -68.1898
   -35.5979 -35.5483 -35.0218 -34.9809 -34.7982 -34.7859 -34.7711 -34.7683
   -34.7382 -34.6421 -34.6287 -34.6139 -34.6112 -34.5698 -34.5129 -34.4987
   -34.4833 -34.3713 -34.3411 -34.3385 -34.1785 -34.1642 -34.1589 -34.1395
     0.6948   1.9973   9.7976  10.0020  10.4234  11.1871  12.0821  13.0868
    13.9693  14.1528  14.8726  14.9921  15.3501  15.3823  15.6780  15.7263
    15.8181  15.8372  16.0089  16.1708  16.1980  16.3187  16.3271  16.5006
    16.6598  16.7096  17.0773  17.6563  17.7029  17.7184  17.8383  18.0415
    18.1451  18.2387  18.3356  18.3815  18.5665  18.6411  18.6796  18.6990
    18.8245  18.8915  19.0289  19.0537  19.3927  19.6868  20.0808  20.5009
    20.8442  21.9816  22.9279

     occupation numbers 
     1.0000   1.0000   1.0000   1.0000   1.0000   1.0000   1.0000   1.0000
     1.0000   1.0000   1.0000   1.0000   1.0000   1.0000   1.0000   1.0000
     1.0000   1.0000   1.0000   1.0000   1.0000   1.0000   1.0000   1.0000
     1.0000   1.0000   1.0000   1.0000   1.0000   1.0000   1.0000   1.0000
     1.0000   1.0000   1.0000   1.0000   1.0000   1.0000   1.0000   1.0000
     1.0000   1.0000   1.0000   1.0000   1.0000   1.0000   1.0000   1.0000
     1.0000   1.0000   1.0000   1.0000   1.0000   1.0000   1.0000   1.0000
     1.0000   1.0000   1.0000   1.0000   1.0000   1.0000   1.0000   1.0025
     1.0162   1.0509   1.0833   1.0672   0.5865   0.3235   0.2166   0.1726
     0.0261   0.0070   0.0002   0.0001   0.0000   0.0000   0.0000   0.0000
     0.0000   0.0000   0.0000

          k = 0.0000 0.4316 0.0000 ( 12167 PWs)   bands (ev):

   -68.8260 -68.8184 -68.6380 -68.6360 -68.4742 -68.4700 -68.1939 -68.1898
   -35.5929 -35.5501 -35.0122 -34.9763 -34.8573 -34.7637 -34.7615 -34.7341
   -34.7322 -34.7269 -34.6490 -34.5884 -34.5630 -34.5407 -34.5082 -34.5034
   -34.4970 -34.4005 -34.3338 -34.3314 -34.1690 -34.1680 -34.1518 -34.1501
     0.5148   1.8273   9.7750  10.7299  10.9635  11.4296  12.5144  12.7608
    13.4886  14.1624  14.6035  14.7795  14.8528  14.8874  15.2986  15.4890
    15.7651  15.8307  15.9468  15.9890  16.1002  16.1797  16.5548  16.9435
    17.0710  17.2521  17.3370  17.4774  17.8518  17.9673  17.9939  18.0607
    18.3973  18.4034  18.4311  18.6012  18.6833  18.6953  18.7648  18.8053
    18.8368  18.8558  19.0151  19.1755  19.2299  19.6427  19.8894  20.0381
    22.1127  22.2311  22.4358

     occupation numbers 
     1.0000   1.0000   1.0000   1.0000   1.0000   1.0000   1.0000   1.0000
     1.0000   1.0000   1.0000   1.0000   1.0000   1.0000   1.0000   1.0000
     1.0000   1.0000   1.0000   1.0000   1.0000   1.0000   1.0000   1.0000
     1.0000   1.0000   1.0000   1.0000   1.0000   1.0000   1.0000   1.0000
     1.0000   1.0000   1.0000   1.0000   1.0000   1.0000   1.0000   1.0000
     1.0000   1.0000   1.0000   1.0000   1.0000   1.0000   1.0000   1.0000
     1.0000   1.0000   1.0000   1.0000   1.0000   1.0000   1.0000   1.0000
     1.0000   1.0000   1.0000   1.0000   1.0000   1.0005   1.0009   1.0037
     1.0529   1.0459   1.0039   0.4578   0.2078   0.1805   0.0702   0.0365
     0.0208   0.0145   0.0003   0.0000   0.0000   0.0000   0.0000   0.0000
     0.0000   0.0000   0.0000

          k = 0.0000 0.4316 0.2055 ( 12174 PWs)   bands (ev):

   -68.8258 -68.8184 -68.6382 -68.6357 -68.4744 -68.4700 -68.1939 -68.1899
   -35.5957 -35.5495 -35.0127 -34.9749 -34.8512 -34.7762 -34.7587 -34.7443
   -34.7371 -34.7050 -34.6485 -34.5933 -34.5662 -34.5452 -34.5046 -34.5011
   -34.4954 -34.3979 -34.3343 -34.3323 -34.1683 -34.1682 -34.1513 -34.1502
     0.5631   1.8772   9.7636  10.6861  10.9107  11.2949  12.0668  12.9646
    13.3748  14.2355  14.7046  14.8133  14.9671  14.9696  15.3768  15.4778
    15.6371  15.9418  15.9425  16.0070  16.2119  16.4156  16.4342  16.8991
    17.0097  17.1337  17.2706  17.4258  17.8548  17.9845  17.9848  18.1446
    18.3962  18.4125  18.4684  18.5678  18.6459  18.6628  18.7638  18.7665
    18.9094  18.9726  19.0500  19.1047  19.2485  19.5701  19.7804  20.3126
    21.8580  22.2982  22.6617

     occupation numbers 
     1.0000   1.0000   1.0000   1.0000   1.0000   1.0000   1.0000   1.0000
     1.0000   1.0000   1.0000   1.0000   1.0000   1.0000   1.0000   1.0000
     1.0000   1.0000   1.0000   1.0000   1.0000   1.0000   1.0000   1.0000
     1.0000   1.0000   1.0000   1.0000   1.0000   1.0000   1.0000   1.0000
     1.0000   1.0000   1.0000   1.0000   1.0000   1.0000   1.0000   1.0000
     1.0000   1.0000   1.0000   1.0000   1.0000   1.0000   1.0000   1.0000
     1.0000   1.0000   1.0000   1.0000   1.0000   1.0000   1.0000   1.0000
     1.0000   1.0000   1.0000   1.0000   1.0000   1.0007   1.0007   1.0160
     1.0540   1.0340   0.9199   0.5817   0.3089   0.2600   0.0713   0.0684
     0.0047   0.0011   0.0001   0.0000   0.0000   0.0000   0.0000   0.0000
     0.0000   0.0000   0.0000

          k = 0.0000 0.4316 0.4110 ( 12158 PWs)   bands (ev):

   -68.8253 -68.8184 -68.6385 -68.6351 -68.4750 -68.4700 -68.1939 -68.1901
   -35.6023 -35.5480 -35.0137 -34.9720 -34.8343 -34.7950 -34.7584 -34.7531
   -34.7451 -34.6754 -34.6469 -34.6032 -34.5766 -34.5569 -34.4989 -34.4960
   -34.4907 -34.3910 -34.3363 -34.3345 -34.1689 -34.1660 -34.1504 -34.1503
     0.6837   2.0027   9.7358  10.4943  10.6559  11.1181  11.4528  13.1744
    13.2416  14.3861  14.8748  14.9617  15.1299  15.1620  15.3262  15.5761
    15.7318  15.9640  16.1332  16.1734  16.2155  16.3757  16.6778  16.7999
    16.8676  16.8942  17.2731  17.3636  17.7631  17.8901  17.9177  18.2623
    18.3103  18.3224  18.5168  18.5433  18.5897  18.7121  18.7287  18.8617
    18.9842  18.9907  19.0048  19.1558  19.2160  19.5428  19.6727  20.6297
    21.6161  22.3924  22.4286

     occupation numbers 
     1.0000   1.0000   1.0000   1.0000   1.0000   1.0000   1.0000   1.0000
     1.0000   1.0000   1.0000   1.0000   1.0000   1.0000   1.0000   1.0000
     1.0000   1.0000   1.0000   1.0000   1.0000   1.0000   1.0000   1.0000
     1.0000   1.0000   1.0000   1.0000   1.0000   1.0000   1.0000   1.0000
     1.0000   1.0000   1.0000   1.0000   1.0000   1.0000   1.0000   1.0000
     1.0000   1.0000   1.0000   1.0000   1.0000   1.0000   1.0000   1.0000
     1.0000   1.0000   1.0000   1.0000   1.0000   1.0000   1.0000   1.0000
     1.0000   1.0000   1.0000   1.0000   1.0000   1.0001   1.0001   1.0620
     1.0802   1.0825   0.7693   0.6737   0.4998   0.1465   0.1180   0.0129
     0.0008   0.0007   0.0005   0.0000   0.0000   0.0000   0.0000   0.0000
     0.0000   0.0000   0.0000

          k = 0.0000 0.4316 0.6165 ( 12159 PWs)   bands (ev):

   -68.8248 -68.8184 -68.6387 -68.6346 -68.4755 -68.4700 -68.1939 -68.1903
   -35.6087 -35.5464 -35.0143 -34.9696 -34.8120 -34.8082 -34.7707 -34.7591
   -34.7459 -34.6455 -34.6449 -34.6118 -34.5943 -34.5693 -34.4953 -34.4915
   -34.4858 -34.3829 -34.3393 -34.3368 -34.1690 -34.1636 -34.1507 -34.1495
     0.8108   2.1364   9.7077  10.0803  10.5344  10.7037  11.3024  13.0253
    13.6891  14.5513  14.7560  14.9721  15.2528  15.4267  15.4854  15.7931
    15.7934  15.9598  16.0645  16.2282  16.2884  16.5147  16.5407  16.8277
    16.8565  16.9754  17.1494  17.5434  17.5879  17.7807  17.9476  18.1550
    18.2312  18.2587  18.3781  18.3987  18.5057  18.7293  18.7384  18.9194
    18.9577  18.9832  19.0532  19.1378  19.1494  19.5783  19.7587  20.8849
    21.2407  21.5348  22.4313

     occupation numbers 
     1.0000   1.0000   1.0000   1.0000   1.0000   1.0000   1.0000   1.0000
     1.0000   1.0000   1.0000   1.0000   1.0000   1.0000   1.0000   1.0000
     1.0000   1.0000   1.0000   1.0000   1.0000   1.0000   1.0000   1.0000
     1.0000   1.0000   1.0000   1.0000   1.0000   1.0000   1.0000   1.0000
     1.0000   1.0000   1.0000   1.0000   1.0000   1.0000   1.0000   1.0000
     1.0000   1.0000   1.0000   1.0000   1.0000   1.0000   1.0000   1.0000
     1.0000   1.0000   1.0000   1.0000   1.0000   1.0000   1.0000   1.0000
     1.0000   1.0000   1.0000   1.0000   1.0000   1.0000   1.0003   1.0187
     1.0474   1.0603   1.0696   1.0513   0.8073   0.1169   0.1032   0.0038
     0.0015   0.0008   0.0001   0.0000   0.0000   0.0000   0.0000   0.0000
     0.0000   0.0000   0.0000

          k = 0.0000 0.4316-0.8220 ( 12150 PWs)   bands (ev):

   -68.8246 -68.8184 -68.6388 -68.6344 -68.4758 -68.4700 -68.1939 -68.1904
   -35.6114 -35.5458 -35.0145 -34.9686 -34.8129 -34.7981 -34.7756 -34.7679
   -34.7442 -34.6438 -34.6180 -34.6178 -34.6153 -34.5746 -34.4939 -34.4898
   -34.4841 -34.3790 -34.3411 -34.3379 -34.1689 -34.1626 -34.1508 -34.1492
     0.8657   2.1945   9.6960   9.9008  10.4253  10.5691  11.2900  12.9724
    14.1928  14.3630  14.6637  14.8420  15.3793  15.6363  15.6624  15.7255
    15.7622  15.9773  16.0859  16.1493  16.3127  16.5887  16.6010  16.6877
    16.9408  16.9609  17.2768  17.5076  17.5901  17.7452  18.0093  18.0933
    18.2008  18.2030  18.2350  18.2818  18.5023  18.7247  18.7739  18.8989
    18.8997  19.0172  19.0387  19.0829  19.1471  19.5765  20.0821  20.5711
    20.9954  21.5163  22.3767

     occupation numbers 
     1.0000   1.0000   1.0000   1.0000   1.0000   1.0000   1.0000   1.0000
     1.0000   1.0000   1.0000   1.0000   1.0000   1.0000   1.0000   1.0000
     1.0000   1.0000   1.0000   1.0000   1.0000   1.0000   1.0000   1.0000
     1.0000   1.0000   1.0000   1.0000   1.0000   1.0000   1.0000   1.0000
     1.0000   1.0000   1.0000   1.0000   1.0000   1.0000   1.0000   1.0000
     1.0000   1.0000   1.0000   1.0000   1.0000   1.0000   1.0000   1.0000
     1.0000   1.0000   1.0000   1.0000   1.0000   1.0000   1.0000   1.0000
     1.0000   1.0000   1.0000   1.0000   1.0000   1.0000   1.0012   1.0068
     1.0342   1.0351   1.0492   1.0705   0.8185   0.1243   0.0611   0.0060
     0.0059   0.0003   0.0002   0.0000   0.0000   0.0000   0.0000   0.0000
     0.0000   0.0000   0.0000

          k = 0.0000 0.6474 0.0000 ( 12156 PWs)   bands (ev):

   -68.8246 -68.8184 -68.6393 -68.6358 -68.4743 -68.4695 -68.1939 -68.1904
   -35.6042 -35.5472 -34.9963 -34.9679 -34.8423 -34.7589 -34.7569 -34.7513
   -34.7471 -34.7363 -34.6673 -34.5903 -34.5398 -34.5377 -34.5219 -34.5155
   -34.4878 -34.3895 -34.3442 -34.3254 -34.1738 -34.1645 -34.1605 -34.1392
     0.7014   2.0306   9.7227  10.1074  10.4689  11.1949  12.2995  13.2540
    13.2855  14.4869  14.5968  15.0320  15.0355  15.1751  15.5434  15.7128
    15.7197  15.9204  15.9473  16.2107  16.2222  16.2793  16.2953  16.9727
    16.9831  17.1825  17.2164  17.4255  17.6450  17.8512  18.0587  18.0592
    18.1143  18.2745  18.2979  18.3205  18.4299  18.5633  18.6065  18.7452
    18.8725  18.9756  18.9832  19.0287  19.3800  19.7315  19.9408  20.1518
    21.4999  22.2472  22.5683

     occupation numbers 
     1.0000   1.0000   1.0000   1.0000   1.0000   1.0000   1.0000   1.0000
     1.0000   1.0000   1.0000   1.0000   1.0000   1.0000   1.0000   1.0000
     1.0000   1.0000   1.0000   1.0000   1.0000   1.0000   1.0000   1.0000
     1.0000   1.0000   1.0000   1.0000   1.0000   1.0000   1.0000   1.0000
     1.0000   1.0000   1.0000   1.0000   1.0000   1.0000   1.0000   1.0000
     1.0000   1.0000   1.0000   1.0000   1.0000   1.0000   1.0000   1.0000
     1.0000   1.0000   1.0000   1.0000   1.0000   1.0000   1.0000   1.0000
     1.0000   1.0000   1.0000   1.0000   1.0000   1.0000   1.0035   1.0036
     1.0099   1.0675   1.0766   1.0822   1.0062   0.5983   0.4388   0.0938
     0.0104   0.0010   0.0008   0.0002   0.0000   0.0000   0.0000   0.0000
     0.0000   0.0000   0.0000

          k = 0.0000 0.6474 0.2055 ( 12166 PWs)   bands (ev):

   -68.8244 -68.8184 -68.6392 -68.6358 -68.4744 -68.4696 -68.1939 -68.1905
   -35.6072 -35.5466 -34.9985 -34.9655 -34.8373 -34.7862 -34.7542 -34.7503
   -34.7466 -34.7169 -34.6669 -34.5966 -34.5447 -34.5420 -34.5138 -34.5102
   -34.4867 -34.3890 -34.3440 -34.3267 -34.1728 -34.1638 -34.1603 -34.1391
     0.7492   2.0821   9.7044  10.0711  10.4902  10.9822  11.9531  13.1800
    13.4084  14.5785  14.5947  15.0854  15.1482  15.1752  15.3185  15.7265
    15.7943  15.9207  16.0661  16.2409  16.2906  16.4140  16.5409  16.9306
    16.9839  17.0225  17.1813  17.1967  17.7264  17.9461  18.0002  18.0881
    18.1237  18.3179  18.3586  18.3843  18.4930  18.5798  18.5840  18.8177
    18.8357  18.9363  18.9461  19.1734  19.3105  19.6693  19.8813  20.4323
    21.4581  22.1195  22.3387

     occupation numbers 
     1.0000   1.0000   1.0000   1.0000   1.0000   1.0000   1.0000   1.0000
     1.0000   1.0000   1.0000   1.0000   1.0000   1.0000   1.0000   1.0000
     1.0000   1.0000   1.0000   1.0000   1.0000   1.0000   1.0000   1.0000
     1.0000   1.0000   1.0000   1.0000   1.0000   1.0000   1.0000   1.0000
     1.0000   1.0000   1.0000   1.0000   1.0000   1.0000   1.0000   1.0000
     1.0000   1.0000   1.0000   1.0000   1.0000   1.0000   1.0000   1.0000
     1.0000   1.0000   1.0000   1.0000   1.0000   1.0000   1.0000   1.0000
     1.0000   1.0000   1.0000   1.0000   1.0000   1.0003   1.0010   1.0062
     1.0115   1.0817   1.0795   1.0650   0.8483   0.5366   0.5209   0.0294
     0.0212   0.0026   0.0020   0.0000   0.0000   0.0000   0.0000   0.0000
     0.0000   0.0000   0.0000

          k = 0.0000 0.6474 0.4110 ( 12159 PWs)   bands (ev):

   -68.8239 -68.8184 -68.6390 -68.6358 -68.4747 -68.4698 -68.1939 -68.1908
   -35.6144 -35.5452 -35.0026 -34.9612 -34.8238 -34.8117 -34.7612 -34.7586
   -34.7483 -34.6812 -34.6653 -34.6077 -34.5572 -34.5563 -34.4987 -34.4974
   -34.4837 -34.3878 -34.3437 -34.3299 -34.1702 -34.1623 -34.1598 -34.1388
     0.8688   2.2122   9.6606   9.9912  10.4417  10.5794  11.2879  13.0336
    13.6646  14.5191  14.8574  15.0460  15.1545  15.2331  15.4064  15.7928
    15.9334  15.9469  16.0041  16.3158  16.5265  16.6767  16.7368  16.8822
    17.0168  17.0955  17.1160  17.2347  17.5040  17.8815  17.8985  18.1606
    18.2644  18.3129  18.3443  18.4265  18.5741  18.5777  18.6585  18.7542
    18.9408  18.9716  19.1756  19.1867  19.2701  19.5260  19.7579  20.7887
    21.2567  21.4378  22.5015

     occupation numbers 
     1.0000   1.0000   1.0000   1.0000   1.0000   1.0000   1.0000   1.0000
     1.0000   1.0000   1.0000   1.0000   1.0000   1.0000   1.0000   1.0000
     1.0000   1.0000   1.0000   1.0000   1.0000   1.0000   1.0000   1.0000
     1.0000   1.0000   1.0000   1.0000   1.0000   1.0000   1.0000   1.0000
     1.0000   1.0000   1.0000   1.0000   1.0000   1.0000   1.0000   1.0000
     1.0000   1.0000   1.0000   1.0000   1.0000   1.0000   1.0000   1.0000
     1.0000   1.0000   1.0000   1.0000   1.0000   1.0000   1.0000   1.0000
     1.0000   1.0000   1.0000   1.0000   1.0000   1.0000   1.0001   1.0203
     1.0629   1.0808   1.0827   1.0121   0.5579   0.5441   0.2720   0.0823
     0.0023   0.0011   0.0000   0.0000   0.0000   0.0000   0.0000   0.0000
     0.0000   0.0000   0.0000

          k = 0.0000 0.6474 0.6165 ( 12150 PWs)   bands (ev):

   -68.8235 -68.8183 -68.6388 -68.6357 -68.4750 -68.4700 -68.1939 -68.1910
   -35.6215 -35.5438 -35.0058 -34.9580 -34.8284 -34.8070 -34.7748 -34.7680
   -34.7436 -34.6628 -34.6461 -34.6163 -34.5786 -34.5706 -34.4878 -34.4858
   -34.4797 -34.3864 -34.3438 -34.3334 -34.1674 -34.1607 -34.1594 -34.1385
     0.9949   2.3515   9.6174   9.9136  10.0048  10.5786  10.7301  12.9162
    14.0290  14.4535  14.8782  14.9781  15.2370  15.3871  15.6309  15.7820
    15.9225  16.0312  16.1600  16.2456  16.4496  16.6440  16.7309  16.9325
    17.1818  17.3102  17.3920  17.5399  17.6777  17.7399  17.8007  18.0917
    18.1877  18.2981  18.3278  18.4417  18.4963  18.5004  18.7668  18.8120
    19.0608  19.0853  19.1890  19.2125  19.2546  19.5036  19.5076  20.5999
    20.6711  21.4187  22.0492

     occupation numbers 
     1.0000   1.0000   1.0000   1.0000   1.0000   1.0000   1.0000   1.0000
     1.0000   1.0000   1.0000   1.0000   1.0000   1.0000   1.0000   1.0000
     1.0000   1.0000   1.0000   1.0000   1.0000   1.0000   1.0000   1.0000
     1.0000   1.0000   1.0000   1.0000   1.0000   1.0000   1.0000   1.0000
     1.0000   1.0000   1.0000   1.0000   1.0000   1.0000   1.0000   1.0000
     1.0000   1.0000   1.0000   1.0000   1.0000   1.0000   1.0000   1.0000
     1.0000   1.0000   1.0000   1.0000   1.0000   1.0000   1.0000   1.0000
     1.0000   1.0000   1.0000   1.0000   1.0000   1.0000   1.0000   1.0066
     1.0292   1.0766   1.0830   0.9834   0.8380   0.8248   0.0681   0.0325
     0.0001   0.0000   0.0000   0.0000   0.0000   0.0000   0.0000   0.0000
     0.0000   0.0000   0.0000

          k = 0.0000 0.6474-0.8220 ( 12170 PWs)   bands (ev):

   -68.8233 -68.8183 -68.6388 -68.6357 -68.4751 -68.4700 -68.1939 -68.1911
   -35.6244 -35.5432 -35.0069 -34.9569 -34.8343 -34.7981 -34.7800 -34.7730
   -34.7422 -34.6614 -34.6220 -34.6195 -34.5986 -34.5764 -34.4847 -34.4813
   -34.4774 -34.3857 -34.3439 -34.3349 -34.1662 -34.1597 -34.1596 -34.1384
     1.0493   2.4123   9.5996   9.8056   9.8955  10.5026  10.6001  12.8733
    14.3087  14.4256  14.8228  14.8256  15.2800  15.5957  15.7321  15.7490
    15.8858  16.0353  16.1341  16.3246  16.4422  16.5902  16.7454  16.8274
    17.1769  17.4919  17.5263  17.6283  17.7401  17.8299  17.9488  18.0552
    18.1494  18.3050  18.3087  18.4081  18.4152  18.4950  18.8435  18.8579
    19.0147  19.0794  19.1691  19.2166  19.2564  19.2843  19.7981  20.0465
    20.4553  21.6401  21.7128

     occupation numbers 
     1.0000   1.0000   1.0000   1.0000   1.0000   1.0000   1.0000   1.0000
     1.0000   1.0000   1.0000   1.0000   1.0000   1.0000   1.0000   1.0000
     1.0000   1.0000   1.0000   1.0000   1.0000   1.0000   1.0000   1.0000
     1.0000   1.0000   1.0000   1.0000   1.0000   1.0000   1.0000   1.0000
     1.0000   1.0000   1.0000   1.0000   1.0000   1.0000   1.0000   1.0000
     1.0000   1.0000   1.0000   1.0000   1.0000   1.0000   1.0000   1.0000
     1.0000   1.0000   1.0000   1.0000   1.0000   1.0000   1.0000   1.0000
     1.0000   1.0000   1.0000   1.0000   1.0000   1.0000   1.0003   1.0033
     1.0172   1.0787   1.0797   1.0400   1.0302   0.8420   0.0183   0.0139
     0.0004   0.0001   0.0000   0.0000   0.0000   0.0000   0.0000   0.0000
     0.0000   0.0000   0.0000

          k = 0.0000-0.8631 0.0000 ( 12168 PWs)   bands (ev):

   -68.8239 -68.8183 -68.6399 -68.6358 -68.4744 -68.4693 -68.1939 -68.1907
   -35.6088 -35.5460 -34.9893 -34.9645 -34.8350 -34.7598 -34.7563 -34.7548
   -34.7535 -34.7386 -34.6754 -34.5913 -34.5395 -34.5273 -34.5272 -34.5217
   -34.4837 -34.3826 -34.3507 -34.3233 -34.1758 -34.1699 -34.1574 -34.1349
     0.7830   2.1209   9.7010   9.8561  10.2155  11.1473  12.2213  13.1729
    13.8388  14.1261  14.9928  15.0687  15.1408  15.2963  15.3267  15.7593
    15.8343  15.9857  16.0132  16.0789  16.2313  16.3665  16.5234  16.7489
    16.9191  17.1279  17.4535  17.5003  17.5476  17.6891  17.7776  17.8318
    18.0587  18.2410  18.2786  18.3298  18.4115  18.4789  18.5770  18.6987
    18.8919  18.9416  18.9522  19.0366  19.4885  19.9622  19.9727  20.2016
    20.8809  22.2063  22.7232

     occupation numbers 
     1.0000   1.0000   1.0000   1.0000   1.0000   1.0000   1.0000   1.0000
     1.0000   1.0000   1.0000   1.0000   1.0000   1.0000   1.0000   1.0000
     1.0000   1.0000   1.0000   1.0000   1.0000   1.0000   1.0000   1.0000
     1.0000   1.0000   1.0000   1.0000   1.0000   1.0000   1.0000   1.0000
     1.0000   1.0000   1.0000   1.0000   1.0000   1.0000   1.0000   1.0000
     1.0000   1.0000   1.0000   1.0000   1.0000   1.0000   1.0000   1.0000
     1.0000   1.0000   1.0000   1.0000   1.0000   1.0000   1.0000   1.0000
     1.0000   1.0000   1.0000   1.0000   1.0000   1.0000   1.0000   1.0000
     1.0035   1.0520   1.0692   1.0832   1.0354   0.8908   0.5470   0.1733
     0.0069   0.0023   0.0018   0.0002   0.0000   0.0000   0.0000   0.0000
     0.0000   0.0000   0.0000

          k = 0.0000-0.8631 0.2055 ( 12182 PWs)   bands (ev):

   -68.8238 -68.8183 -68.6397 -68.6358 -68.4744 -68.4694 -68.1939 -68.1908
   -35.6119 -35.5454 -34.9924 -34.9616 -34.8305 -34.7914 -34.7568 -34.7521
   -34.7459 -34.7212 -34.6751 -34.5982 -34.5445 -34.5330 -34.5176 -34.5143
   -34.4825 -34.3835 -34.3497 -34.3247 -34.1747 -34.1690 -34.1573 -34.1347
     0.8307   2.1732   9.6801   9.8203  10.2384  10.9314  11.9081  13.1091
    13.8835  14.2814  14.8423  15.1144  15.1905  15.2586  15.3032  15.7671
    15.9350  15.9419  15.9455  16.3560  16.3957  16.5737  16.6169  16.7688
    16.9268  16.9850  17.0824  17.4668  17.6512  17.6910  17.7948  18.0328
    18.1715  18.2276  18.2624  18.3207  18.4955  18.5639  18.6188  18.6709
    18.8265  18.9096  18.9285  19.1751  19.3887  19.9361  19.9547  20.4677
    20.7856  22.2439  22.3142

     occupation numbers 
     1.0000   1.0000   1.0000   1.0000   1.0000   1.0000   1.0000   1.0000
     1.0000   1.0000   1.0000   1.0000   1.0000   1.0000   1.0000   1.0000
     1.0000   1.0000   1.0000   1.0000   1.0000   1.0000   1.0000   1.0000
     1.0000   1.0000   1.0000   1.0000   1.0000   1.0000   1.0000   1.0000
     1.0000   1.0000   1.0000   1.0000   1.0000   1.0000   1.0000   1.0000
     1.0000   1.0000   1.0000   1.0000   1.0000   1.0000   1.0000   1.0000
     1.0000   1.0000   1.0000   1.0000   1.0000   1.0000   1.0000   1.0000
     1.0000   1.0000   1.0000   1.0000   1.0000   1.0000   1.0000   1.0021
     1.0236   1.0458   1.0620   1.0822   0.8403   0.5963   0.3960   0.2386
     0.0251   0.0047   0.0031   0.0000   0.0000   0.0000   0.0000   0.0000
     0.0000   0.0000   0.0000

          k = 0.0000-0.8631 0.4110 ( 12138 PWs)   bands (ev):

   -68.8234 -68.8183 -68.6394 -68.6359 -68.4746 -68.4697 -68.1939 -68.1910
   -35.6193 -35.5441 -34.9979 -34.9567 -34.8185 -34.8183 -34.7648 -34.7620
   -34.7458 -34.6832 -34.6737 -34.6097 -34.5572 -34.5490 -34.5003 -34.4980
   -34.4790 -34.3854 -34.3476 -34.3282 -34.1719 -34.1669 -34.1568 -34.1342
     0.9499   2.3056   9.6302   9.7422  10.2835  10.4329  11.2706  12.9800
    14.0299  14.5899  14.6167  14.9732  15.2366  15.3259  15.4827  15.8266
    15.8801  15.9866  16.0505  16.4935  16.5924  16.7452  16.7782  16.9157
    17.0663  17.1014  17.1435  17.3971  17.4964  17.7004  17.7523  18.2116
    18.2291  18.2390  18.2622  18.3533  18.5225  18.6229  18.6395  18.6435
    18.9167  18.9965  19.1170  19.2041  19.2595  19.8049  19.8739  20.4766
    20.9201  21.2525  22.6236

     occupation numbers 
     1.0000   1.0000   1.0000   1.0000   1.0000   1.0000   1.0000   1.0000
     1.0000   1.0000   1.0000   1.0000   1.0000   1.0000   1.0000   1.0000
     1.0000   1.0000   1.0000   1.0000   1.0000   1.0000   1.0000   1.0000
     1.0000   1.0000   1.0000   1.0000   1.0000   1.0000   1.0000   1.0000
     1.0000   1.0000   1.0000   1.0000   1.0000   1.0000   1.0000   1.0000
     1.0000   1.0000   1.0000   1.0000   1.0000   1.0000   1.0000   1.0000
     1.0000   1.0000   1.0000   1.0000   1.0000   1.0000   1.0000   1.0000
     1.0000   1.0000   1.0000   1.0000   1.0000   1.0000   1.0000   1.0387
     1.0465   1.0510   1.0619   1.0810   0.7492   0.3823   0.3284   0.3160
     0.0040   0.0006   0.0000   0.0000   0.0000   0.0000   0.0000   0.0000
     0.0000   0.0000   0.0000

          k = 0.0000-0.8631 0.6165 ( 12142 PWs)   bands (ev):

   -68.8230 -68.8183 -68.6389 -68.6361 -68.4747 -68.4699 -68.1939 -68.1913
   -35.6267 -35.5427 -35.0021 -34.9534 -34.8360 -34.8046 -34.7764 -34.7731
   -34.7405 -34.6713 -34.6469 -34.6181 -34.5724 -34.5707 -34.4884 -34.4835
   -34.4738 -34.3874 -34.3458 -34.3320 -34.1690 -34.1649 -34.1562 -34.1338
     1.0755   2.4477   9.5811   9.6713   9.9591  10.3184  10.7211  12.8744
    14.2519  14.4067  14.8563  14.9878  15.2151  15.3881  15.6777  15.7593
    15.9503  16.0977  16.2406  16.2597  16.6550  16.6863  16.7491  16.8989
    17.1587  17.3882  17.5076  17.6326  17.7692  17.7710  17.8735  18.1666
    18.2237  18.2262  18.2794  18.3790  18.4302  18.5989  18.7638  18.8301
    19.0157  19.1361  19.1417  19.2256  19.2672  19.4790  19.6316  19.9561
    20.4414  21.2435  22.0568

     occupation numbers 
     1.0000   1.0000   1.0000   1.0000   1.0000   1.0000   1.0000   1.0000
     1.0000   1.0000   1.0000   1.0000   1.0000   1.0000   1.0000   1.0000
     1.0000   1.0000   1.0000   1.0000   1.0000   1.0000   1.0000   1.0000
     1.0000   1.0000   1.0000   1.0000   1.0000   1.0000   1.0000   1.0000
     1.0000   1.0000   1.0000   1.0000   1.0000   1.0000   1.0000   1.0000
     1.0000   1.0000   1.0000   1.0000   1.0000   1.0000   1.0000   1.0000
     1.0000   1.0000   1.0000   1.0000   1.0000   1.0000   1.0000   1.0000
     1.0000   1.0000   1.0000   1.0000   1.0000   1.0000   1.0000   1.0221
     1.0440   1.0451   1.0695   1.0690   1.0055   0.4662   0.0713   0.0235
     0.0003   0.0000   0.0000   0.0000   0.0000   0.0000   0.0000   0.0000
     0.0000   0.0000   0.0000

          k = 0.0000-0.8631-0.8220 ( 12132 PWs)   bands (ev):

   -68.8228 -68.8183 -68.6388 -68.6362 -68.4748 -68.4700 -68.1939 -68.1914
   -35.6296 -35.5421 -35.0036 -34.9523 -34.8422 -34.7980 -34.7819 -34.7765
   -34.7388 -34.6700 -34.6236 -34.6213 -34.5914 -34.5767 -34.4849 -34.4779
   -34.4707 -34.3882 -34.3451 -34.3337 -34.1678 -34.1640 -34.1559 -34.1336
     1.1297   2.5098   9.5611   9.6434   9.7682  10.3306  10.5091  12.8356
    14.3421  14.3794  14.8157  15.1740  15.2273  15.3623  15.7363  15.8135
    15.9651  16.0285  16.1760  16.4258  16.5461  16.7065  16.7884  16.9223
    17.0254  17.4629  17.5173  17.6694  17.7037  17.9704  18.1177  18.2153
    18.2634  18.2776  18.4329  18.5064  18.6735  18.7067  18.8886  18.9001
    18.9263  18.9959  19.1246  19.2245  19.2721  19.2806  19.3049  19.5862
    20.1362  21.3589  21.8055

     occupation numbers 
     1.0000   1.0000   1.0000   1.0000   1.0000   1.0000   1.0000   1.0000
     1.0000   1.0000   1.0000   1.0000   1.0000   1.0000   1.0000   1.0000
     1.0000   1.0000   1.0000   1.0000   1.0000   1.0000   1.0000   1.0000
     1.0000   1.0000   1.0000   1.0000   1.0000   1.0000   1.0000   1.0000
     1.0000   1.0000   1.0000   1.0000   1.0000   1.0000   1.0000   1.0000
     1.0000   1.0000   1.0000   1.0000   1.0000   1.0000   1.0000   1.0000
     1.0000   1.0000   1.0000   1.0000   1.0000   1.0000   1.0000   1.0000
     1.0000   1.0000   1.0000   1.0000   1.0000   1.0005   1.0105   1.0403
     1.0625   1.0688   1.0007   0.8048   0.2318   0.1570   0.0074   0.0058
     0.0032   0.0006   0.0000   0.0000   0.0000   0.0000   0.0000   0.0000
     0.0000   0.0000   0.0000

          k = 0.2000 0.0000 0.0000 ( 12178 PWs)   bands (ev):

   -68.8272 -68.8194 -68.6362 -68.6361 -68.4736 -68.4710 -68.1934 -68.1894
   -35.5740 -35.5563 -35.0287 -34.9933 -34.8716 -34.8071 -34.7377 -34.7228
   -34.7136 -34.6546 -34.6270 -34.6263 -34.5888 -34.5676 -34.5071 -34.4879
   -34.4646 -34.4131 -34.3435 -34.3271 -34.1771 -34.1642 -34.1636 -34.1377
     0.3750   1.4159  10.1831  11.2424  11.7691  11.9894  12.6609  12.8191
    13.4173  13.5547  14.4900  14.5740  14.6162  14.7562  14.9148  14.9207
    15.4088  15.5750  15.7924  15.9960  15.9997  16.3207  16.7393  16.7552
    17.2998  17.6772  17.6813  17.7222  17.7666  18.0410  18.1058  18.1917
    18.2570  18.3604  18.5998  18.6874  18.7126  18.8241  18.9421  18.9767
    19.0481  19.0761  19.1125  19.2612  19.5073  19.5285  19.7151  19.7760
    21.2707  22.1085  23.0561

     occupation numbers 
     1.0000   1.0000   1.0000   1.0000   1.0000   1.0000   1.0000   1.0000
     1.0000   1.0000   1.0000   1.0000   1.0000   1.0000   1.0000   1.0000
     1.0000   1.0000   1.0000   1.0000   1.0000   1.0000   1.0000   1.0000
     1.0000   1.0000   1.0000   1.0000   1.0000   1.0000   1.0000   1.0000
     1.0000   1.0000   1.0000   1.0000   1.0000   1.0000   1.0000   1.0000
     1.0000   1.0000   1.0000   1.0000   1.0000   1.0000   1.0000   1.0000
     1.0000   1.0000   1.0000   1.0000   1.0000   1.0000   1.0000   1.0000
     1.0000   1.0000   1.0000   1.0000   1.0000   1.0025   1.0085   1.0307
     1.0595   1.0788   0.4629   0.1982   0.1457   0.0262   0.0022   0.0010
     0.0001   0.0001   0.0000   0.0000   0.0000   0.0000   0.0000   0.0000
     0.0000   0.0000   0.0000

          k = 0.2000 0.0000 0.2055 ( 12166 PWs)   bands (ev):

   -68.8270 -68.8194 -68.6370 -68.6352 -68.4741 -68.4709 -68.1934 -68.1895
   -35.5761 -35.5559 -35.0276 -34.9928 -34.8643 -34.8045 -34.7403 -34.7252
   -34.7158 -34.6542 -34.6269 -34.6247 -34.5917 -34.5714 -34.5090 -34.4876
   -34.4668 -34.4079 -34.3427 -34.3280 -34.1777 -34.1641 -34.1635 -34.1379
     0.4237   1.4641  10.1755  11.1132  11.7341  11.7460  12.6205  12.7317
    13.3014  13.6445  14.5666  14.6601  14.7175  14.8612  14.9998  15.0711
    15.4500  15.6050  15.7997  16.0031  16.0143  16.3328  16.7048  16.7083
    17.2544  17.3225  17.7005  17.8279  17.8634  17.9319  18.1437  18.1955
    18.2918  18.3458  18.6173  18.6234  18.6605  18.8508  18.9043  18.9723
    19.0044  19.0097  19.0886  19.2319  19.4929  19.5370  19.7129  19.7515
    21.5065  22.0119  22.8117

     occupation numbers 
     1.0000   1.0000   1.0000   1.0000   1.0000   1.0000   1.0000   1.0000
     1.0000   1.0000   1.0000   1.0000   1.0000   1.0000   1.0000   1.0000
     1.0000   1.0000   1.0000   1.0000   1.0000   1.0000   1.0000   1.0000
     1.0000   1.0000   1.0000   1.0000   1.0000   1.0000   1.0000   1.0000
     1.0000   1.0000   1.0000   1.0000   1.0000   1.0000   1.0000   1.0000
     1.0000   1.0000   1.0000   1.0000   1.0000   1.0000   1.0000   1.0000
     1.0000   1.0000   1.0000   1.0000   1.0000   1.0000   1.0000   1.0000
     1.0000   1.0000   1.0000   1.0000   1.0000   1.0002   1.0158   1.0321
     1.0744   1.0825   0.4013   0.3806   0.2664   0.0159   0.0053   0.0011
     0.0005   0.0004   0.0000   0.0000   0.0000   0.0000   0.0000   0.0000
     0.0000   0.0000   0.0000

          k = 0.2000 0.0000 0.4110 ( 12164 PWs)   bands (ev):

   -68.8264 -68.8193 -68.6377 -68.6342 -68.4750 -68.4707 -68.1935 -68.1897
   -35.5812 -35.5550 -35.0250 -34.9917 -34.8443 -34.7982 -34.7482 -34.7299
   -34.7220 -34.6532 -34.6264 -34.6211 -34.5996 -34.5800 -34.5133 -34.4871
   -34.4713 -34.3956 -34.3412 -34.3306 -34.1788 -34.1651 -34.1618 -34.1382
     0.5455   1.5848  10.1467  10.7028  11.1832  11.6531  12.5537  12.7926
    13.0941  13.9372  14.6669  14.9035  14.9125  15.1022  15.2380  15.4073
    15.5448  15.6814  15.8219  16.0056  16.0516  16.3584  16.5329  16.5333
    16.9525  17.2881  17.5763  17.6495  17.7286  18.0349  18.0861  18.1667
    18.2489  18.3512  18.4584  18.4920  18.5576  18.7000  18.8119  18.9306
    18.9646  19.0068  19.0991  19.1186  19.5616  19.5739  19.6726  19.8316
    21.7958  22.0740  22.3511

     occupation numbers 
     1.0000   1.0000   1.0000   1.0000   1.0000   1.0000   1.0000   1.0000
     1.0000   1.0000   1.0000   1.0000   1.0000   1.0000   1.0000   1.0000
     1.0000   1.0000   1.0000   1.0000   1.0000   1.0000   1.0000   1.0000
     1.0000   1.0000   1.0000   1.0000   1.0000   1.0000   1.0000   1.0000
     1.0000   1.0000   1.0000   1.0000   1.0000   1.0000   1.0000   1.0000
     1.0000   1.0000   1.0000   1.0000   1.0000   1.0000   1.0000   1.0000
     1.0000   1.0000   1.0000   1.0000   1.0000   1.0000   1.0000   1.0000
     1.0000   1.0000   1.0000   1.0000   1.0000   1.0022   1.0060   1.0221
     1.0557   1.0815   0.9455   0.8515   0.6198   0.1706   0.0326   0.0029
     0.0013   0.0004   0.0000   0.0000   0.0000   0.0000   0.0000   0.0000
     0.0000   0.0000   0.0000

          k = 0.2000 0.0000 0.6165 ( 12164 PWs)   bands (ev):

   -68.8258 -68.8192 -68.6381 -68.6335 -68.4758 -68.4707 -68.1935 -68.1898
   -35.5861 -35.5540 -35.0224 -34.9906 -34.8182 -34.7919 -34.7584 -34.7385
   -34.7261 -34.6523 -34.6260 -34.6177 -34.6098 -34.5876 -34.5174 -34.4870
   -34.4752 -34.3831 -34.3402 -34.3343 -34.1795 -34.1661 -34.1602 -34.1385
     0.6740   1.7127  10.0788  10.2630  10.6870  11.5767  12.4057  12.9073
    13.3300  14.3221  14.6108  15.0978  15.2114  15.2371  15.5281  15.6329
    15.7145  15.8212  15.8559  15.9881  16.0507  16.2862  16.2939  16.4298
    16.6686  17.1355  17.3389  17.4546  17.8057  17.9328  17.9367  18.0759
    18.1907  18.3126  18.3293  18.4162  18.4585  18.5423  18.6531  18.7855
    18.8257  19.0075  19.0601  19.1391  19.5651  19.7179  19.8531  19.9035
    21.4007  22.0198  22.9772

     occupation numbers 
     1.0000   1.0000   1.0000   1.0000   1.0000   1.0000   1.0000   1.0000
     1.0000   1.0000   1.0000   1.0000   1.0000   1.0000   1.0000   1.0000
     1.0000   1.0000   1.0000   1.0000   1.0000   1.0000   1.0000   1.0000
     1.0000   1.0000   1.0000   1.0000   1.0000   1.0000   1.0000   1.0000
     1.0000   1.0000   1.0000   1.0000   1.0000   1.0000   1.0000   1.0000
     1.0000   1.0000   1.0000   1.0000   1.0000   1.0000   1.0000   1.0000
     1.0000   1.0000   1.0000   1.0000   1.0000   1.0000   1.0000   1.0000
     1.0000   1.0000   1.0000   1.0000   1.0000   1.0002   1.0002   1.0050
     1.0303   1.0807   1.0832   1.0287   0.9453   0.6773   0.2874   0.0508
     0.0255   0.0004   0.0001   0.0000   0.0000   0.0000   0.0000   0.0000
     0.0000   0.0000   0.0000

          k = 0.2000 0.0000-0.8220 ( 12150 PWs)   bands (ev):

   -68.8256 -68.8192 -68.6382 -68.6333 -68.4761 -68.4707 -68.1935 -68.1899
   -35.5881 -35.5536 -35.0213 -34.9902 -34.8018 -34.7904 -34.7642 -34.7461
   -34.7262 -34.6519 -34.6258 -34.6165 -34.6145 -34.5904 -34.5190 -34.4870
   -34.4767 -34.3775 -34.3399 -34.3365 -34.1798 -34.1665 -34.1595 -34.1387
     0.7294   1.7680  10.0279  10.0720  10.5244  11.5462  12.3504  12.8549
    13.8549  14.1338  14.7675  15.1019  15.1890  15.3790  15.6320  15.7277
    15.7683  15.8269  16.0405  16.0413  16.0944  16.1112  16.1472  16.5050
    16.5232  16.9913  17.0761  17.5988  17.7633  17.8543  17.8640  17.9911
    18.1759  18.2569  18.3453  18.4003  18.4120  18.4632  18.5971  18.7036
    18.7725  18.9860  19.0840  19.1573  19.5639  19.7742  19.9315  19.9509
    21.1297  22.1408  23.1050

     occupation numbers 
     1.0000   1.0000   1.0000   1.0000   1.0000   1.0000   1.0000   1.0000
     1.0000   1.0000   1.0000   1.0000   1.0000   1.0000   1.0000   1.0000
     1.0000   1.0000   1.0000   1.0000   1.0000   1.0000   1.0000   1.0000
     1.0000   1.0000   1.0000   1.0000   1.0000   1.0000   1.0000   1.0000
     1.0000   1.0000   1.0000   1.0000   1.0000   1.0000   1.0000   1.0000
     1.0000   1.0000   1.0000   1.0000   1.0000   1.0000   1.0000   1.0000
     1.0000   1.0000   1.0000   1.0000   1.0000   1.0000   1.0000   1.0000
     1.0000   1.0000   1.0000   1.0000   1.0000   1.0000   1.0000   1.0008
     1.0250   1.0595   1.0826   1.0496   1.0348   0.9334   0.4727   0.1631
     0.0623   0.0008   0.0000   0.0000   0.0000   0.0000   0.0000   0.0000
     0.0000   0.0000   0.0000

          k = 0.2000 0.2158 0.0000 ( 12158 PWs)   bands (ev):

   -68.8267 -68.8194 -68.6366 -68.6362 -68.4737 -68.4708 -68.1934 -68.1896
   -35.5785 -35.5558 -35.0230 -34.9891 -34.8669 -34.8048 -34.7405 -34.7302
[...]
   -34.5811 -34.5751 -34.5694 -34.5644 -34.5347 -34.5234 -34.4937 -34.4787
   -34.4614 -34.4572 -34.0944 -34.0911 -34.0669 -34.0607 -34.0524 -34.0498
     1.2308   1.4447  10.2159  10.2516  10.8317  11.5499  12.1624  12.3239
    14.1371  14.3896  14.6561  14.9991  15.5143  15.6782  15.7182  15.7370
    15.9259  15.9383  16.0563  16.1315  16.2746  16.3486  16.5895  16.9232
    17.0142  17.1700  17.4017  17.5791  17.8118  17.8319  17.9216  17.9277
    18.0085  18.0621  18.3529  18.3581  18.4027  18.4808  18.6742  18.8782
    18.9022  19.1583  19.2013  19.2818  19.4112  19.4134  19.6201  19.7314
    21.7521  22.4224  22.9612

     occupation numbers 
     1.0000   1.0000   1.0000   1.0000   1.0000   1.0000   1.0000   1.0000
     1.0000   1.0000   1.0000   1.0000   1.0000   1.0000   1.0000   1.0000
     1.0000   1.0000   1.0000   1.0000   1.0000   1.0000   1.0000   1.0000
     1.0000   1.0000   1.0000   1.0000   1.0000   1.0000   1.0000   1.0000
     1.0000   1.0000   1.0000   1.0000   1.0000   1.0000   1.0000   1.0000
     1.0000   1.0000   1.0000   1.0000   1.0000   1.0000   1.0000   1.0000
     1.0000   1.0000   1.0000   1.0000   1.0000   1.0000   1.0000   1.0000
     1.0000   1.0000   1.0000   1.0000   1.0000   1.0000   1.0000   1.0000
     1.0001   1.0004   1.0578   1.0602   1.0782   1.0674   0.5558   0.0567
     0.0382   0.0001   0.0000   0.0000   0.0000   0.0000   0.0000   0.0000
     0.0000   0.0000   0.0000

          k = 0.3592-0.9000 0.2204 ( 12122 PWs)   bands (ev):

   -68.6486 -68.6467 -68.6250 -68.6249 -68.5953 -68.5934 -67.9997 -67.9996
   -35.2461 -35.2176 -35.0669 -35.0451 -35.0000 -34.9927 -34.6310 -34.6101
   -34.5922 -34.5919 -34.5867 -34.5777 -34.5189 -34.5109 -34.4913 -34.4705
   -34.4528 -34.4519 -34.0928 -34.0901 -34.0649 -34.0590 -34.0517 -34.0488
     1.3137   1.5290  10.1735  10.2242  10.7717  11.4646  11.8196  11.9549
    14.1900  14.4102  14.7738  15.0794  15.6298  15.6993  15.7707  15.8575
    15.8816  16.0344  16.2041  16.2163  16.3262  16.4236  16.4552  16.7501
    16.9469  17.0615  17.3991  17.5892  17.6016  17.7670  17.8036  17.8847
    18.0121  18.1363  18.4687  18.4831  18.5683  18.5753  18.7546  18.8432
    18.9693  19.0908  19.2060  19.2298  19.3795  19.4519  19.9171  20.1507
    21.8077  22.4771  23.0576

     occupation numbers 
     1.0000   1.0000   1.0000   1.0000   1.0000   1.0000   1.0000   1.0000
     1.0000   1.0000   1.0000   1.0000   1.0000   1.0000   1.0000   1.0000
     1.0000   1.0000   1.0000   1.0000   1.0000   1.0000   1.0000   1.0000
     1.0000   1.0000   1.0000   1.0000   1.0000   1.0000   1.0000   1.0000
     1.0000   1.0000   1.0000   1.0000   1.0000   1.0000   1.0000   1.0000
     1.0000   1.0000   1.0000   1.0000   1.0000   1.0000   1.0000   1.0000
     1.0000   1.0000   1.0000   1.0000   1.0000   1.0000   1.0000   1.0000
     1.0000   1.0000   1.0000   1.0000   1.0000   1.0000   1.0000   1.0000
     1.0001   1.0023   1.0749   1.0656   0.9190   0.8999   0.2819   0.0958
     0.0110   0.0007   0.0000   0.0000   0.0000   0.0000   0.0000   0.0000
     0.0000   0.0000   0.0000

          k = 0.3592-0.9000 0.4409 ( 12114 PWs)   bands (ev):

   -68.6471 -68.6458 -68.6249 -68.6248 -68.5961 -68.5948 -67.9998 -67.9997
   -35.2753 -35.2434 -35.0615 -35.0296 -34.9760 -34.9751 -34.6393 -34.6219
   -34.6196 -34.6120 -34.6065 -34.6015 -34.5032 -34.4908 -34.4885 -34.4648
   -34.4343 -34.4329 -34.0892 -34.0873 -34.0600 -34.0548 -34.0503 -34.0466
     1.5263   1.7459  10.0752  10.1555  10.6217  10.9609  11.1360  11.4002
    14.3437  14.4504  15.0455  15.2459  15.6733  15.7170  15.8873  16.1146
    16.1917  16.2248  16.2796  16.3831  16.4709  16.4748  16.5556  16.6309
    16.8382  16.9040  17.3499  17.3924  17.5149  17.5684  17.6155  17.7252
    18.1638  18.3028  18.5920  18.6600  18.6769  18.7415  18.8534  18.8916
    19.0594  19.0938  19.2416  19.3021  19.3266  19.4371  20.4305  20.8017
    21.7713  22.2182  22.3531

     occupation numbers 
     1.0000   1.0000   1.0000   1.0000   1.0000   1.0000   1.0000   1.0000
     1.0000   1.0000   1.0000   1.0000   1.0000   1.0000   1.0000   1.0000
     1.0000   1.0000   1.0000   1.0000   1.0000   1.0000   1.0000   1.0000
     1.0000   1.0000   1.0000   1.0000   1.0000   1.0000   1.0000   1.0000
     1.0000   1.0000   1.0000   1.0000   1.0000   1.0000   1.0000   1.0000
     1.0000   1.0000   1.0000   1.0000   1.0000   1.0000   1.0000   1.0000
     1.0000   1.0000   1.0000   1.0000   1.0000   1.0000   1.0000   1.0000
     1.0000   1.0000   1.0000   1.0000   1.0000   1.0000   1.0000   1.0000
     1.0040   1.0352   0.8502   0.6093   0.5455   0.3208   0.0827   0.0456
     0.0015   0.0006   0.0000   0.0000   0.0000   0.0000   0.0000   0.0000
     0.0000   0.0000   0.0000

          k = 0.3592-0.9000 0.6613 ( 12090 PWs)   bands (ev):

   -68.6455 -68.6450 -68.6247 -68.6247 -68.5969 -68.5964 -67.9998 -67.9998
   -35.2992 -35.2644 -35.0579 -35.0228 -34.9546 -34.9539 -34.6470 -34.6438
   -34.6351 -34.6256 -34.6203 -34.6176 -34.4949 -34.4867 -34.4769 -34.4633
   -34.4172 -34.4166 -34.0856 -34.0839 -34.0552 -34.0506 -34.0490 -34.0450
     1.7601   1.9855   9.9811  10.0853  10.2270  10.3141  10.5979  11.2413
    14.4730  14.5279  15.3296  15.3945  15.6482  15.6629  15.8853  16.1132
    16.3565  16.4505  16.5021  16.6205  16.6978  16.7022  16.8055  16.8549
    16.8893  17.0009  17.1406  17.2700  17.3076  17.3774  17.4961  17.7185
    18.3424  18.4884  18.5683  18.6332  18.7178  18.8008  18.8479  18.8985
    19.0029  19.1276  19.3679  19.4109  19.4903  19.5389  20.7081  20.7980
    20.9918  21.1913  22.3648

     occupation numbers 
     1.0000   1.0000   1.0000   1.0000   1.0000   1.0000   1.0000   1.0000
     1.0000   1.0000   1.0000   1.0000   1.0000   1.0000   1.0000   1.0000
     1.0000   1.0000   1.0000   1.0000   1.0000   1.0000   1.0000   1.0000
     1.0000   1.0000   1.0000   1.0000   1.0000   1.0000   1.0000   1.0000
     1.0000   1.0000   1.0000   1.0000   1.0000   1.0000   1.0000   1.0000
     1.0000   1.0000   1.0000   1.0000   1.0000   1.0000   1.0000   1.0000
     1.0000   1.0000   1.0000   1.0000   1.0000   1.0000   1.0000   1.0000
     1.0000   1.0000   1.0000   1.0000   1.0000   1.0000   1.0000   1.0000
     1.0529   1.0612   0.9192   0.7090   0.3979   0.1680   0.0895   0.0407
     0.0054   0.0002   0.0000   0.0000   0.0000   0.0000   0.0000   0.0000
     0.0000   0.0000   0.0000

          k = 0.3592-0.9000-0.8818 ( 12052 PWs)   bands (ev):

   -68.6449 -68.6446 -68.6247 -68.6247 -68.5973 -68.5970 -67.9998 -67.9998
   -35.3081 -35.2722 -35.0566 -35.0211 -34.9458 -34.9455 -34.6517 -34.6496
   -34.6421 -34.6309 -34.6274 -34.6208 -34.4924 -34.4861 -34.4722 -34.4629
   -34.4107 -34.4107 -34.0840 -34.0824 -34.0532 -34.0489 -34.0484 -34.0446
     1.8645   2.0930   9.9401   9.9431  10.0413  10.0560  10.5203  11.1858
    14.4772  14.6102  15.4520  15.4661  15.6358  15.6507  15.8243  15.9958
    16.5072  16.5253  16.7489  16.7892  16.7960  16.8007  16.8261  16.9622
    16.9691  17.0521  17.1412  17.1412  17.2828  17.3305  17.4802  17.7189
    18.4537  18.4758  18.5776  18.6399  18.7307  18.7705  18.8343  18.8359
    18.9095  19.1533  19.5048  19.5538  19.5788  19.6531  20.1081  20.4156
    20.7646  21.2658  22.4498

     occupation numbers 
     1.0000   1.0000   1.0000   1.0000   1.0000   1.0000   1.0000   1.0000
     1.0000   1.0000   1.0000   1.0000   1.0000   1.0000   1.0000   1.0000
     1.0000   1.0000   1.0000   1.0000   1.0000   1.0000   1.0000   1.0000
     1.0000   1.0000   1.0000   1.0000   1.0000   1.0000   1.0000   1.0000
     1.0000   1.0000   1.0000   1.0000   1.0000   1.0000   1.0000   1.0000
     1.0000   1.0000   1.0000   1.0000   1.0000   1.0000   1.0000   1.0000
     1.0000   1.0000   1.0000   1.0000   1.0000   1.0000   1.0000   1.0000
     1.0000   1.0000   1.0000   1.0000   1.0000   1.0000   1.0000   1.0000
     1.0808   1.0708   0.8932   0.6843   0.3549   0.2383   0.1086   0.1062
     0.0337   0.0001   0.0000   0.0000   0.0000   0.0000   0.0000   0.0000
     0.0000   0.0000   0.0000

     the Fermi energy is    18.7170 ev

!    total energy              =   -2674.38318436 Ry
     Harris-Foulkes estimate   =   -2674.38318436 Ry
     estimated scf accuracy    <          1.8E-11 Ry

     The total energy is the sum of the following terms:

     one-electron contribution =    -890.97276767 Ry
     hartree contribution      =     539.45308065 Ry
     xc contribution           =    -289.13179200 Ry
     ewald contribution        =   -1424.50514834 Ry
     one-center paw contrib.   =    -609.22628384 Ry
     smearing contrib. (-TS)   =      -0.00027316 Ry

     convergence has been achieved in  19 iterations

     Forces acting on atoms (Ry/au):

     atom    1 type  1   force =     0.00000000    0.00000000   -0.00000570
     atom    2 type  1   force =     0.00000000    0.00000000    0.00000570
     atom    3 type  1   force =     0.00000000    0.00000000    0.00001520
     atom    4 type  1   force =     0.00000000    0.00000000   -0.00001520
     atom    5 type  1   force =     0.00000000    0.00000000    0.00000000
     atom    6 type  1   force =     0.00000000    0.00000000    0.00000000
     atom    7 type  1   force =     0.00000000    0.00000000    0.00000000
     atom    8 type  1   force =     0.00000000    0.00000000    0.00000000
     atom    9 type  2   force =     0.00000000    0.00000000    0.00000595
     atom   10 type  2   force =     0.00000000    0.00000000   -0.00000595
     The non-local contrib.  to forces
     atom    1 type  1   force =     0.00000000    0.00000000   -0.08001846
     atom    2 type  1   force =     0.00000000    0.00000000    0.08001846
     atom    3 type  1   force =     0.00000000    0.00000000    0.01264612
     atom    4 type  1   force =     0.00000000    0.00000000   -0.01264612
     atom    5 type  1   force =     0.00000000   -0.00000000    0.00000000
     atom    6 type  1   force =     0.00000000    0.00000000    0.00000000
     atom    7 type  1   force =     0.00000000    0.00000000    0.00000000
     atom    8 type  1   force =     0.00000000    0.00000000    0.00000000
     atom    9 type  2   force =     0.00000000    0.00000000    0.11024658
     atom   10 type  2   force =     0.00000000    0.00000000   -0.11024658
     The ionic contribution  to forces
     atom    1 type  1   force =    -0.00000000    0.00000000   -3.01262155
     atom    2 type  1   force =     0.00000000    0.00000000    3.01262155
     atom    3 type  1   force =    -0.00000000   -0.00000000    3.53241972
     atom    4 type  1   force =     0.00000000   -0.00000000   -3.53241972
     atom    5 type  1   force =    -0.00000000   -0.00000000    0.00000000
     atom    6 type  1   force =     0.00000000   -0.00000000    0.00000000
     atom    7 type  1   force =    -0.00000000    0.00000000   -0.00000000
     atom    8 type  1   force =     0.00000000    0.00000000   -0.00000000
     atom    9 type  2   force =    -0.00000000   -0.00000000   -1.36933351
     atom   10 type  2   force =    -0.00000000   -0.00000000    1.36933351
     The local contribution  to forces
     atom    1 type  1   force =    -0.00000000    0.00000000    3.09576387
     atom    2 type  1   force =     0.00000000    0.00000000   -3.09576387
     atom    3 type  1   force =    -0.00000000   -0.00000000   -3.54476867
     atom    4 type  1   force =     0.00000000   -0.00000000    3.54476867
     atom    5 type  1   force =    -0.00000000   -0.00000000    0.00000000
     atom    6 type  1   force =     0.00000000   -0.00000000    0.00000000
     atom    7 type  1   force =    -0.00000000    0.00000000   -0.00000000
     atom    8 type  1   force =     0.00000000    0.00000000   -0.00000000
     atom    9 type  2   force =    -0.00000000   -0.00000000    1.26027549
     atom   10 type  2   force =     0.00000000   -0.00000000   -1.26027549
     The core correction contribution to forces
     atom    1 type  1   force =     0.00000000    0.00000000   -0.00312837
     atom    2 type  1   force =    -0.00000000   -0.00000000    0.00312837
     atom    3 type  1   force =     0.00000000    0.00000000   -0.00028311
     atom    4 type  1   force =    -0.00000000    0.00000000    0.00028311
     atom    5 type  1   force =     0.00000000    0.00000000   -0.00000000
     atom    6 type  1   force =    -0.00000000    0.00000000   -0.00000000
     atom    7 type  1   force =    -0.00000000    0.00000000    0.00000000
     atom    8 type  1   force =    -0.00000000   -0.00000000    0.00000000
     atom    9 type  2   force =     0.00000000    0.00000000   -0.00118201
     atom   10 type  2   force =    -0.00000000    0.00000000    0.00118201
     The Hubbard contrib.    to forces
     atom    1 type  1   force =     0.00000000    0.00000000    0.00000000
     atom    2 type  1   force =     0.00000000    0.00000000    0.00000000
     atom    3 type  1   force =     0.00000000    0.00000000    0.00000000
     atom    4 type  1   force =     0.00000000    0.00000000    0.00000000
     atom    5 type  1   force =     0.00000000    0.00000000    0.00000000
     atom    6 type  1   force =     0.00000000    0.00000000    0.00000000
     atom    7 type  1   force =     0.00000000    0.00000000    0.00000000
     atom    8 type  1   force =     0.00000000    0.00000000    0.00000000
     atom    9 type  2   force =     0.00000000    0.00000000    0.00000000
     atom   10 type  2   force =     0.00000000    0.00000000    0.00000000
     The SCF correction term to forces
     atom    1 type  1   force =    -0.00000000    0.00000000   -0.00000118
     atom    2 type  1   force =    -0.00000000   -0.00000000    0.00000118
     atom    3 type  1   force =     0.00000000    0.00000000    0.00000114
     atom    4 type  1   force =     0.00000000    0.00000000   -0.00000114
     atom    5 type  1   force =    -0.00000000   -0.00000000   -0.00000000
     atom    6 type  1   force =    -0.00000000   -0.00000000   -0.00000000
     atom    7 type  1   force =    -0.00000000   -0.00000000    0.00000000
     atom    8 type  1   force =     0.00000000    0.00000000    0.00000000
     atom    9 type  2   force =     0.00000000    0.00000000   -0.00000060
     atom   10 type  2   force =    -0.00000000   -0.00000000    0.00000060

     Total force =     0.000024     Total SCF correction =     0.000002
     SCF correction compared to forces is large: reduce conv_thr to get better values


     entering subroutine stress ...

          total   stress  (Ry/bohr**3)                   (kbar)     P=    1.17
   0.00001202   0.00000000   0.00000000          1.77      0.00      0.00
   0.00000000   0.00000569   0.00000000          0.00      0.84      0.00
   0.00000000   0.00000000   0.00000616          0.00      0.00      0.91

     kinetic stress (kbar)  79500.63      0.00      0.00
                                0.00  79539.69      0.00
                                0.00      0.00  79514.76

     local   stress (kbar)  62174.26      0.00     -0.00
                                0.00  61704.74     -0.00
                               -0.00     -0.00  63679.49

     nonloc. stress (kbar) -58401.41      0.00      0.00
                                0.00 -58391.46      0.00
                                0.00      0.00 -58363.33

     hartree stress (kbar)  39825.39      0.00     -0.00
                                0.00  40050.96     -0.00
                               -0.00     -0.00  39224.41

     exc-cor stress (kbar)  -2934.90     -0.00      0.00
                               -0.00  -2934.37      0.00
                                0.00      0.00  -2934.93

     corecor stress (kbar) -15581.21      0.00      0.00
                                0.00 -15583.49      0.00
                                0.00      0.00 -15582.66

     ewald   stress (kbar)-104580.98      0.00      0.00
                                0.00-104385.24     -0.00
                                0.00     -0.00-105536.84

     hubbard stress (kbar)      0.00      0.00      0.00
                                0.00      0.00      0.00
                                0.00      0.00      0.00

     london  stress (kbar)      0.00      0.00      0.00
                                0.00      0.00      0.00
                                0.00      0.00      0.00

     XDM     stress (kbar)      0.00      0.00      0.00
                                0.00      0.00      0.00
                                0.00      0.00      0.00

     dft-nl  stress (kbar)      0.00      0.00      0.00
                                0.00      0.00      0.00
                                0.00      0.00      0.00



     Writing output data file fe4n.save
 
     init_run     :     19.25s CPU     19.64s WALL (       2 calls)
     electrons    :   8108.17s CPU   8428.93s WALL (      23 calls)
     update_pot   :     64.93s CPU     65.25s WALL (      21 calls)
     forces       :     83.63s CPU     84.69s WALL (      23 calls)
     stress       :    223.49s CPU    225.95s WALL (      23 calls)

     Called by init_run:
     wfcinit      :     14.17s CPU     14.38s WALL (       2 calls)
     potinit      :      1.47s CPU      1.48s WALL (       2 calls)

     Called by electrons:
     c_bands      :   7075.86s CPU   7366.92s WALL (     393 calls)
     sum_band     :    938.18s CPU    958.41s WALL (     393 calls)
     v_of_rho     :      9.97s CPU     10.28s WALL (     410 calls)
     v_h          :      0.68s CPU      0.68s WALL (     410 calls)
     v_xc         :     10.33s CPU     10.64s WALL (     456 calls)
     newd         :     27.18s CPU     33.37s WALL (     410 calls)
     mix_rho      :      2.31s CPU      2.36s WALL (     393 calls)

     Called by c_bands:
     init_us_2    :     80.28s CPU     83.70s WALL (   64125 calls)
     cegterg      :   6708.51s CPU   6980.68s WALL (   29475 calls)

     Called by sum_band:
     sum_band:bec :      4.85s CPU      4.94s WALL (   31050 calls)
     addusdens    :     38.33s CPU     46.43s WALL (     393 calls)

     Called by *egterg:
     h_psi        :   3660.15s CPU   3753.71s WALL (  104037 calls)
     s_psi        :    295.43s CPU    298.84s WALL (  104037 calls)
     g_psi        :     33.80s CPU     34.41s WALL (   74412 calls)
     cdiaghg      :   1392.93s CPU   1447.98s WALL (  101862 calls)
     cegterg:over :    422.06s CPU    425.89s WALL (   74412 calls)
     cegterg:upda :    386.14s CPU    392.87s WALL (   74412 calls)
     cegterg:last :    173.48s CPU    174.68s WALL (   30978 calls)
     cdiaghg:chol :     83.39s CPU     84.81s WALL (  101862 calls)
     cdiaghg:inve :     32.74s CPU     33.33s WALL (  101862 calls)
     cdiaghg:para :    205.96s CPU    209.78s WALL (  203724 calls)

     Called by h_psi:
     h_psi:vloc   :   3034.18s CPU   3102.42s WALL (  104037 calls)
     h_psi:vnl    :    597.82s CPU    619.36s WALL (  104037 calls)
     add_vuspsi   :    284.84s CPU    295.15s WALL (  104037 calls)

     General routines
     calbec       :    467.38s CPU    481.43s WALL (  143712 calls)
     fft          :      7.53s CPU      7.76s WALL (    7088 calls)
     ffts         :      0.39s CPU      0.39s WALL (     803 calls)
     fftw         :   3232.25s CPU   3297.98s WALL (14716061 calls)
     interpolate  :      1.56s CPU      1.58s WALL (     803 calls)
     davcio       :      0.25s CPU      2.15s WALL (     150 calls)
 
     Parallel routines
     fft_scatter  :    980.07s CPU   1009.20s WALL (14723952 calls)

     PAW routines
     PAW_pot      :     61.16s CPU     63.40s WALL (     431 calls)
     PAW_symme    :      0.09s CPU      0.09s WALL (     824 calls)
 
     PWSCF        :     2h21m CPU        2h27m WALL

 
   This run was terminated on:  17:19:13   9Nov2020            

=------------------------------------------------------------------------------=
   JOB DONE.
=------------------------------------------------------------------------------=
