
     Program PWSCF v.5.2.0 starts on 14Nov2020 at 13:26:32 

     This program is part of the open-source Quantum ESPRESSO suite
     for quantum simulation of materials; please cite
         "P. Giannozzi et al., J. Phys.:Condens. Matter 21 395502 (2009);
          URL http://www.quantum-espresso.org", 
     in publications or presentations arising from this work. More details at
     http://www.quantum-espresso.org/quote

     Parallel version (MPI), running on    24 processors
     R & G space division:  proc/nbgrp/npool/nimage =      24
     Reading input from config.in

     Current dimensions of program PWSCF are:
     Max number of different atomic species (ntypx) = 10
     Max number of k-points (npk) =  40000
     Max angular momentum in pseudopotentials (lmaxx) =  3

     IMPORTANT: XC functional enforced from input :
     Exchange-correlation      = PBE ( 1  4  3  4 0 0)
     Any further DFT definition will be discarded
     Please, verify this is what you really want

               file Fe.pbe-spn-kjpaw_psl.0.2.1.UPF: wavefunction(s)  3D renormalized

     Subspace diagonalization in iterative solution of the eigenvalue problem:
     scalapack distributed-memory algorithm (size of sub-group:  3*  3 procs)

 
     Parallelization info
     --------------------
     sticks:   dense  smooth     PW     G-vecs:    dense   smooth      PW
     Min         215     123     34                 9377     4045     598
     Max         216     124     35                 9382     4062     601
     Sum        5183    2971    835               225123    97307   14397
 


     bravais-lattice index     =            0
     lattice parameter (alat)  =      12.3840  a.u.
     unit-cell volume          =     669.2381 (a.u.)^3
     number of atoms/cell      =           10
     number of atomic types    =            2
     number of electrons       =       138.00
     number of Kohn-Sham states=           83
     kinetic-energy cutoff     =     105.0000  Ry
     charge density cutoff     =     735.0000  Ry
     convergence threshold     =      2.0E-09
     mixing beta               =       0.4000
     number of iterations used =            8  plain     mixing
     Exchange-correlation      = PBE ( 1  4  3  4 0 0)
     nstep                     =           50


     celldm(1)=  12.383961  celldm(2)=   0.000000  celldm(3)=   0.000000
     celldm(4)=   0.000000  celldm(5)=   0.000000  celldm(6)=   0.000000

     crystal axes: (cart. coord. in units of alat)
               a(1) = (   1.000000   0.000000   0.000000 )  
               a(2) = (   0.000000   0.579278   0.000000 )  
               a(3) = (   0.000000   0.000000   0.608296 )  

     reciprocal axes: (cart. coord. in units 2 pi/alat)
               b(1) = (  1.000000  0.000000  0.000000 )  
               b(2) = (  0.000000  1.726286  0.000000 )  
               b(3) = (  0.000000  0.000000  1.643937 )  


     PseudoPot. # 1 for Fe read from file:
     pseudo/Fe.pbe-spn-kjpaw_psl.0.2.1.UPF
     MD5 check sum: e86618425769142926afa95317d90200
     Pseudo is Projector augmented-wave + core cor, Zval = 16.0
     Generated using "atomic" code by A. Dal Corso  v.5.0.99 svn rev. 10869
     Shape of augmentation charge: PSQ
     Using radial grid of 1191 points,  6 beta functions with: 
                l(1) =   0
                l(2) =   0
                l(3) =   1
                l(4) =   1
                l(5) =   2
                l(6) =   2
     Q(r) pseudized with 0 coefficients 


     PseudoPot. # 2 for  N read from file:
     pseudo/N.pbe-n-radius_5.UPF
     MD5 check sum: 16739722b17309cd8fe442a2ace49922
     Pseudo is Ultrasoft + core correction, Zval =  5.0
     Generated using "atomic" code by A. Dal Corso  v.5.1
     Using radial grid of 1085 points,  4 beta functions with: 
                l(1) =   0
                l(2) =   0
                l(3) =   1
                l(4) =   1
     Q(r) pseudized with 0 coefficients 


     atomic species   valence    mass     pseudopotential
        Fe            16.00    55.84500     Fe( 1.00)
        N              5.00    14.00650      N( 1.00)

      8 Sym. Ops., with inversion, found ( 4 have fractional translation)


                                    s                        frac. trans.

      isym =  1     identity                                     

 cryst.   s( 1) = (     1          0          0      )
                  (     0          1          0      )
                  (     0          0          1      )

 cart.    s( 1) = (  1.0000000  0.0000000  0.0000000 )
                  (  0.0000000  1.0000000  0.0000000 )
                  (  0.0000000  0.0000000  1.0000000 )


      isym =  2     180 deg rotation - cart. axis [0,0,1]        

 cryst.   s( 2) = (    -1          0          0      )    f =(  0.5000000 )
                  (     0         -1          0      )       (  0.0000000 )
                  (     0          0          1      )       (  0.0000000 )

 cart.    s( 2) = ( -1.0000000  0.0000000  0.0000000 )    f =(  0.5000000 )
                  (  0.0000000 -1.0000000  0.0000000 )       (  0.0000000 )
                  (  0.0000000  0.0000000  1.0000000 )       (  0.0000000 )


      isym =  3     180 deg rotation - cart. axis [0,1,0]        

 cryst.   s( 3) = (    -1          0          0      )
                  (     0          1          0      )
                  (     0          0         -1      )

 cart.    s( 3) = ( -1.0000000  0.0000000  0.0000000 )
                  (  0.0000000  1.0000000  0.0000000 )
                  (  0.0000000  0.0000000 -1.0000000 )


      isym =  4     180 deg rotation - cart. axis [1,0,0]        

 cryst.   s( 4) = (     1          0          0      )    f =( -0.5000000 )
                  (     0         -1          0      )       (  0.0000000 )
                  (     0          0         -1      )       (  0.0000000 )

 cart.    s( 4) = (  1.0000000  0.0000000  0.0000000 )    f =( -0.5000000 )
                  (  0.0000000 -1.0000000  0.0000000 )       (  0.0000000 )
                  (  0.0000000  0.0000000 -1.0000000 )       (  0.0000000 )


      isym =  5     inversion                                    

 cryst.   s( 5) = (    -1          0          0      )
                  (     0         -1          0      )
                  (     0          0         -1      )

 cart.    s( 5) = ( -1.0000000  0.0000000  0.0000000 )
                  (  0.0000000 -1.0000000  0.0000000 )
                  (  0.0000000  0.0000000 -1.0000000 )


      isym =  6     inv. 180 deg rotation - cart. axis [0,0,1]   

 cryst.   s( 6) = (     1          0          0      )    f =( -0.5000000 )
                  (     0          1          0      )       (  0.0000000 )
                  (     0          0         -1      )       (  0.0000000 )

 cart.    s( 6) = (  1.0000000  0.0000000  0.0000000 )    f =( -0.5000000 )
                  (  0.0000000  1.0000000  0.0000000 )       (  0.0000000 )
                  (  0.0000000  0.0000000 -1.0000000 )       (  0.0000000 )


      isym =  7     inv. 180 deg rotation - cart. axis [0,1,0]   

 cryst.   s( 7) = (     1          0          0      )
                  (     0         -1          0      )
                  (     0          0          1      )

 cart.    s( 7) = (  1.0000000  0.0000000  0.0000000 )
                  (  0.0000000 -1.0000000  0.0000000 )
                  (  0.0000000  0.0000000  1.0000000 )


      isym =  8     inv. 180 deg rotation - cart. axis [1,0,0]   

 cryst.   s( 8) = (    -1          0          0      )    f =(  0.5000000 )
                  (     0          1          0      )       (  0.0000000 )
                  (     0          0          1      )       (  0.0000000 )

 cart.    s( 8) = ( -1.0000000  0.0000000  0.0000000 )    f =(  0.5000000 )
                  (  0.0000000  1.0000000  0.0000000 )       (  0.0000000 )
                  (  0.0000000  0.0000000  1.0000000 )       (  0.0000000 )


     point group D_2h (mmm) 
     there are  8 classes
     the character table:

       E     C2    C2'   C2''  i     s_v   s_v'  s_v''
A_g    1.00  1.00  1.00  1.00  1.00  1.00  1.00  1.00
B_1g   1.00  1.00 -1.00 -1.00  1.00  1.00 -1.00 -1.00
B_2g   1.00 -1.00  1.00 -1.00  1.00 -1.00  1.00 -1.00
B_3g   1.00 -1.00 -1.00  1.00  1.00 -1.00 -1.00  1.00
A_u    1.00  1.00  1.00  1.00 -1.00 -1.00 -1.00 -1.00
B_1u   1.00  1.00 -1.00 -1.00 -1.00 -1.00  1.00  1.00
B_2u   1.00 -1.00  1.00 -1.00 -1.00  1.00 -1.00  1.00
B_3u   1.00 -1.00 -1.00  1.00 -1.00  1.00  1.00 -1.00

     the symmetry operations in each class and the name of the first element:

     E        1
          identity                                               
     C2       2
          180 deg rotation - cart. axis [0,0,1]                  
     C2'      3
          180 deg rotation - cart. axis [0,1,0]                  
     C2''     4
          180 deg rotation - cart. axis [1,0,0]                  
     i        5
          inversion                                              
     s_v      6
          inv. 180 deg rotation - cart. axis [0,0,1]             
     s_v'     7
          inv. 180 deg rotation - cart. axis [0,1,0]             
     s_v''    8
          inv. 180 deg rotation - cart. axis [1,0,0]             

   Cartesian axes

     site n.     atom                  positions (alat units)
         1           Fe  tau(   1) = (   0.2500000   0.0000000   0.2456055  )
         2           Fe  tau(   2) = (   0.7500000   0.0000000   0.3626902  )
         3           Fe  tau(   3) = (   0.2500000   0.2896391   0.5497533  )
         4           Fe  tau(   4) = (   0.7500000   0.2896391   0.0585424  )
         5           Fe  tau(   5) = (   0.0000000   0.2896391   0.3041478  )
         6           Fe  tau(   6) = (   0.5000000   0.2896391   0.3041478  )
         7           Fe  tau(   7) = (   0.0000000   0.0000000   0.0000000  )
         8           Fe  tau(   8) = (   0.5000000   0.0000000   0.0000000  )
         9           N   tau(   9) = (   0.2500000   0.2896391   0.2456055  )
        10           N   tau(  10) = (   0.7500000   0.2896391   0.3626902  )

   Crystallographic axes

     site n.     atom                  positions (cryst. coord.)
         1           Fe  tau(   1) = (  0.2500000  0.0000000  0.4037600  )
         2           Fe  tau(   2) = (  0.7500000  0.0000000  0.5962400  )
         3           Fe  tau(   3) = (  0.2500000  0.5000000  0.9037600  )
         4           Fe  tau(   4) = (  0.7500000  0.5000000  0.0962400  )
         5           Fe  tau(   5) = (  0.0000000  0.5000000  0.5000000  )
         6           Fe  tau(   6) = (  0.5000000  0.5000000  0.5000000  )
         7           Fe  tau(   7) = (  0.0000000  0.0000000  0.0000000  )
         8           Fe  tau(   8) = (  0.5000000  0.0000000  0.0000000  )
         9           N   tau(   9) = (  0.2500000  0.5000000  0.4037600  )
        10           N   tau(  10) = (  0.7500000  0.5000000  0.5962400  )

     number of k points=    75  Marzari-Vanderbilt smearing, width (Ry)=  0.0147
                       cart. coord. in units 2pi/alat
        k(    1) = (   0.0000000   0.0000000   0.0000000), wk =   0.0055556
        k(    2) = (   0.0000000   0.0000000   0.2054922), wk =   0.0111111
        k(    3) = (   0.0000000   0.0000000   0.4109844), wk =   0.0111111
        k(    4) = (   0.0000000   0.0000000   0.6164765), wk =   0.0111111
        k(    5) = (   0.0000000   0.0000000  -0.8219687), wk =   0.0055556
        k(    6) = (   0.0000000   0.1918096   0.0000000), wk =   0.0111111
        k(    7) = (   0.0000000   0.1918096   0.2054922), wk =   0.0222222
        k(    8) = (   0.0000000   0.1918096   0.4109844), wk =   0.0222222
        k(    9) = (   0.0000000   0.1918096   0.6164765), wk =   0.0222222
        k(   10) = (   0.0000000   0.1918096  -0.8219687), wk =   0.0111111
        k(   11) = (   0.0000000   0.3836191   0.0000000), wk =   0.0111111
        k(   12) = (   0.0000000   0.3836191   0.2054922), wk =   0.0222222
        k(   13) = (   0.0000000   0.3836191   0.4109844), wk =   0.0222222
        k(   14) = (   0.0000000   0.3836191   0.6164765), wk =   0.0222222
        k(   15) = (   0.0000000   0.3836191  -0.8219687), wk =   0.0111111
        k(   16) = (   0.0000000   0.5754287   0.0000000), wk =   0.0111111
        k(   17) = (   0.0000000   0.5754287   0.2054922), wk =   0.0222222
        k(   18) = (   0.0000000   0.5754287   0.4109844), wk =   0.0222222
        k(   19) = (   0.0000000   0.5754287   0.6164765), wk =   0.0222222
        k(   20) = (   0.0000000   0.5754287  -0.8219687), wk =   0.0111111
        k(   21) = (   0.0000000   0.7672383   0.0000000), wk =   0.0111111
        k(   22) = (   0.0000000   0.7672383   0.2054922), wk =   0.0222222
        k(   23) = (   0.0000000   0.7672383   0.4109844), wk =   0.0222222
        k(   24) = (   0.0000000   0.7672383   0.6164765), wk =   0.0222222
        k(   25) = (   0.0000000   0.7672383  -0.8219687), wk =   0.0111111
        k(   26) = (   0.2000000   0.0000000   0.0000000), wk =   0.0111111
        k(   27) = (   0.2000000   0.0000000   0.2054922), wk =   0.0222222
        k(   28) = (   0.2000000   0.0000000   0.4109844), wk =   0.0222222
        k(   29) = (   0.2000000   0.0000000   0.6164765), wk =   0.0222222
        k(   30) = (   0.2000000   0.0000000  -0.8219687), wk =   0.0111111
        k(   31) = (   0.2000000   0.1918096   0.0000000), wk =   0.0222222
        k(   32) = (   0.2000000   0.1918096   0.2054922), wk =   0.0444444
        k(   33) = (   0.2000000   0.1918096   0.4109844), wk =   0.0444444
        k(   34) = (   0.2000000   0.1918096   0.6164765), wk =   0.0444444
        k(   35) = (   0.2000000   0.1918096  -0.8219687), wk =   0.0222222
        k(   36) = (   0.2000000   0.3836191   0.0000000), wk =   0.0222222
        k(   37) = (   0.2000000   0.3836191   0.2054922), wk =   0.0444444
        k(   38) = (   0.2000000   0.3836191   0.4109844), wk =   0.0444444
        k(   39) = (   0.2000000   0.3836191   0.6164765), wk =   0.0444444
        k(   40) = (   0.2000000   0.3836191  -0.8219687), wk =   0.0222222
        k(   41) = (   0.2000000   0.5754287   0.0000000), wk =   0.0222222
        k(   42) = (   0.2000000   0.5754287   0.2054922), wk =   0.0444444
        k(   43) = (   0.2000000   0.5754287   0.4109844), wk =   0.0444444
        k(   44) = (   0.2000000   0.5754287   0.6164765), wk =   0.0444444
        k(   45) = (   0.2000000   0.5754287  -0.8219687), wk =   0.0222222
        k(   46) = (   0.2000000   0.7672383   0.0000000), wk =   0.0222222
        k(   47) = (   0.2000000   0.7672383   0.2054922), wk =   0.0444444
        k(   48) = (   0.2000000   0.7672383   0.4109844), wk =   0.0444444
        k(   49) = (   0.2000000   0.7672383   0.6164765), wk =   0.0444444
        k(   50) = (   0.2000000   0.7672383  -0.8219687), wk =   0.0222222
        k(   51) = (   0.4000000   0.0000000   0.0000000), wk =   0.0111111
        k(   52) = (   0.4000000   0.0000000   0.2054922), wk =   0.0222222
        k(   53) = (   0.4000000   0.0000000   0.4109844), wk =   0.0222222
        k(   54) = (   0.4000000   0.0000000   0.6164765), wk =   0.0222222
        k(   55) = (   0.4000000   0.0000000  -0.8219687), wk =   0.0111111
        k(   56) = (   0.4000000   0.1918096   0.0000000), wk =   0.0222222
        k(   57) = (   0.4000000   0.1918096   0.2054922), wk =   0.0444444
        k(   58) = (   0.4000000   0.1918096   0.4109844), wk =   0.0444444
        k(   59) = (   0.4000000   0.1918096   0.6164765), wk =   0.0444444
        k(   60) = (   0.4000000   0.1918096  -0.8219687), wk =   0.0222222
        k(   61) = (   0.4000000   0.3836191   0.0000000), wk =   0.0222222
        k(   62) = (   0.4000000   0.3836191   0.2054922), wk =   0.0444444
        k(   63) = (   0.4000000   0.3836191   0.4109844), wk =   0.0444444
        k(   64) = (   0.4000000   0.3836191   0.6164765), wk =   0.0444444
        k(   65) = (   0.4000000   0.3836191  -0.8219687), wk =   0.0222222
        k(   66) = (   0.4000000   0.5754287   0.0000000), wk =   0.0222222
        k(   67) = (   0.4000000   0.5754287   0.2054922), wk =   0.0444444
        k(   68) = (   0.4000000   0.5754287   0.4109844), wk =   0.0444444
        k(   69) = (   0.4000000   0.5754287   0.6164765), wk =   0.0444444
        k(   70) = (   0.4000000   0.5754287  -0.8219687), wk =   0.0222222
        k(   71) = (   0.4000000   0.7672383   0.0000000), wk =   0.0222222
        k(   72) = (   0.4000000   0.7672383   0.2054922), wk =   0.0444444
        k(   73) = (   0.4000000   0.7672383   0.4109844), wk =   0.0444444
        k(   74) = (   0.4000000   0.7672383   0.6164765), wk =   0.0444444
        k(   75) = (   0.4000000   0.7672383  -0.8219687), wk =   0.0222222

                       cryst. coord.
        k(    1) = (   0.0000000   0.0000000   0.0000000), wk =   0.0055556
        k(    2) = (   0.0000000   0.0000000   0.1250000), wk =   0.0111111
        k(    3) = (   0.0000000   0.0000000   0.2500000), wk =   0.0111111
        k(    4) = (   0.0000000   0.0000000   0.3750000), wk =   0.0111111
        k(    5) = (   0.0000000   0.0000000  -0.5000000), wk =   0.0055556
        k(    6) = (   0.0000000   0.1111111   0.0000000), wk =   0.0111111
        k(    7) = (   0.0000000   0.1111111   0.1250000), wk =   0.0222222
        k(    8) = (   0.0000000   0.1111111   0.2500000), wk =   0.0222222
        k(    9) = (   0.0000000   0.1111111   0.3750000), wk =   0.0222222
        k(   10) = (   0.0000000   0.1111111  -0.5000000), wk =   0.0111111
        k(   11) = (   0.0000000   0.2222222   0.0000000), wk =   0.0111111
        k(   12) = (   0.0000000   0.2222222   0.1250000), wk =   0.0222222
        k(   13) = (   0.0000000   0.2222222   0.2500000), wk =   0.0222222
        k(   14) = (   0.0000000   0.2222222   0.3750000), wk =   0.0222222
        k(   15) = (   0.0000000   0.2222222  -0.5000000), wk =   0.0111111
        k(   16) = (   0.0000000   0.3333333   0.0000000), wk =   0.0111111
        k(   17) = (   0.0000000   0.3333333   0.1250000), wk =   0.0222222
        k(   18) = (   0.0000000   0.3333333   0.2500000), wk =   0.0222222
        k(   19) = (   0.0000000   0.3333333   0.3750000), wk =   0.0222222
        k(   20) = (   0.0000000   0.3333333  -0.5000000), wk =   0.0111111
        k(   21) = (   0.0000000   0.4444444   0.0000000), wk =   0.0111111
        k(   22) = (   0.0000000   0.4444444   0.1250000), wk =   0.0222222
        k(   23) = (   0.0000000   0.4444444   0.2500000), wk =   0.0222222
        k(   24) = (   0.0000000   0.4444444   0.3750000), wk =   0.0222222
        k(   25) = (   0.0000000   0.4444444  -0.5000000), wk =   0.0111111
        k(   26) = (   0.2000000   0.0000000   0.0000000), wk =   0.0111111
        k(   27) = (   0.2000000   0.0000000   0.1250000), wk =   0.0222222
        k(   28) = (   0.2000000   0.0000000   0.2500000), wk =   0.0222222
        k(   29) = (   0.2000000   0.0000000   0.3750000), wk =   0.0222222
        k(   30) = (   0.2000000   0.0000000  -0.5000000), wk =   0.0111111
        k(   31) = (   0.2000000   0.1111111   0.0000000), wk =   0.0222222
        k(   32) = (   0.2000000   0.1111111   0.1250000), wk =   0.0444444
        k(   33) = (   0.2000000   0.1111111   0.2500000), wk =   0.0444444
        k(   34) = (   0.2000000   0.1111111   0.3750000), wk =   0.0444444
        k(   35) = (   0.2000000   0.1111111  -0.5000000), wk =   0.0222222
        k(   36) = (   0.2000000   0.2222222   0.0000000), wk =   0.0222222
        k(   37) = (   0.2000000   0.2222222   0.1250000), wk =   0.0444444
        k(   38) = (   0.2000000   0.2222222   0.2500000), wk =   0.0444444
        k(   39) = (   0.2000000   0.2222222   0.3750000), wk =   0.0444444
        k(   40) = (   0.2000000   0.2222222  -0.5000000), wk =   0.0222222
        k(   41) = (   0.2000000   0.3333333   0.0000000), wk =   0.0222222
        k(   42) = (   0.2000000   0.3333333   0.1250000), wk =   0.0444444
        k(   43) = (   0.2000000   0.3333333   0.2500000), wk =   0.0444444
        k(   44) = (   0.2000000   0.3333333   0.3750000), wk =   0.0444444
        k(   45) = (   0.2000000   0.3333333  -0.5000000), wk =   0.0222222
        k(   46) = (   0.2000000   0.4444444   0.0000000), wk =   0.0222222
        k(   47) = (   0.2000000   0.4444444   0.1250000), wk =   0.0444444
        k(   48) = (   0.2000000   0.4444444   0.2500000), wk =   0.0444444
        k(   49) = (   0.2000000   0.4444444   0.3750000), wk =   0.0444444
        k(   50) = (   0.2000000   0.4444444  -0.5000000), wk =   0.0222222
        k(   51) = (   0.4000000   0.0000000   0.0000000), wk =   0.0111111
        k(   52) = (   0.4000000   0.0000000   0.1250000), wk =   0.0222222
        k(   53) = (   0.4000000   0.0000000   0.2500000), wk =   0.0222222
        k(   54) = (   0.4000000   0.0000000   0.3750000), wk =   0.0222222
        k(   55) = (   0.4000000   0.0000000  -0.5000000), wk =   0.0111111
        k(   56) = (   0.4000000   0.1111111   0.0000000), wk =   0.0222222
        k(   57) = (   0.4000000   0.1111111   0.1250000), wk =   0.0444444
        k(   58) = (   0.4000000   0.1111111   0.2500000), wk =   0.0444444
        k(   59) = (   0.4000000   0.1111111   0.3750000), wk =   0.0444444
        k(   60) = (   0.4000000   0.1111111  -0.5000000), wk =   0.0222222
        k(   61) = (   0.4000000   0.2222222   0.0000000), wk =   0.0222222
        k(   62) = (   0.4000000   0.2222222   0.1250000), wk =   0.0444444
        k(   63) = (   0.4000000   0.2222222   0.2500000), wk =   0.0444444
        k(   64) = (   0.4000000   0.2222222   0.3750000), wk =   0.0444444
        k(   65) = (   0.4000000   0.2222222  -0.5000000), wk =   0.0222222
        k(   66) = (   0.4000000   0.3333333   0.0000000), wk =   0.0222222
        k(   67) = (   0.4000000   0.3333333   0.1250000), wk =   0.0444444
        k(   68) = (   0.4000000   0.3333333   0.2500000), wk =   0.0444444
        k(   69) = (   0.4000000   0.3333333   0.3750000), wk =   0.0444444
        k(   70) = (   0.4000000   0.3333333  -0.5000000), wk =   0.0222222
        k(   71) = (   0.4000000   0.4444444   0.0000000), wk =   0.0222222
        k(   72) = (   0.4000000   0.4444444   0.1250000), wk =   0.0444444
        k(   73) = (   0.4000000   0.4444444   0.2500000), wk =   0.0444444
        k(   74) = (   0.4000000   0.4444444   0.3750000), wk =   0.0444444
        k(   75) = (   0.4000000   0.4444444  -0.5000000), wk =   0.0222222

     Dense  grid:   225123 G-vectors     FFT dimensions: ( 108,  64,  72)

     Smooth grid:    97307 G-vectors     FFT dimensions: (  81,  48,  50)

     Largest allocated arrays     est. size (Mb)     dimensions
        Kohn-Sham Wavefunctions         0.65 Mb     (     512,   83)
        NL pseudopotentials             1.25 Mb     (     512,  160)
        Each V/rho on FFT grid          0.32 Mb     (   20736)
        Each G-vector array             0.07 Mb     (    9382)
        G-vector shells                 0.07 Mb     (    9382)
     Largest temporary arrays     est. size (Mb)     dimensions
        Auxiliary wavefunctions         2.59 Mb     (     512,  332)
        Each subspace H/S matrix        0.18 Mb     (     110,  110)
        Each <psi_i|beta_j> matrix      0.20 Mb     (     160,   83)
        Arrays for rho mixing           2.53 Mb     (   20736,    8)

     Check: negative/imaginary core charge=   -0.000028    0.000000

     Initial potential from superposition of free atoms

     starting charge  137.99648, renormalised to  138.00000
     Starting wfc are  112 randomized atomic wfcs
     Checking if some PAW data can be deallocated... 
       node   20, deallocated PAW data for type:  1
       node   21, deallocated PAW data for type:  1
       node   22, deallocated PAW data for type:  1
       node   23, deallocated PAW data for type:  1

     total cpu time spent up to now is        7.3 secs

     per-process dynamical memory:    87.0 Mb

     Self-consistent Calculation

     iteration #  1     ecut=   105.00 Ry     beta=0.40
     Davidson diagonalization with overlap
     ethr =  1.00E-02,  avg # of iterations =  2.2

     Threshold (ethr) on eigenvalues was too large:
     Diagonalizing with lowered threshold

     Davidson diagonalization with overlap
     ethr =  7.54E-04,  avg # of iterations =  3.9

     total cpu time spent up to now is       34.9 secs

     total energy              =   -2673.79205855 Ry
     Harris-Foulkes estimate   =   -2674.28967181 Ry
     estimated scf accuracy    <       0.89338717 Ry

     iteration #  2     ecut=   105.00 Ry     beta=0.40
     Davidson diagonalization with overlap
     ethr =  6.47E-04,  avg # of iterations =  3.9

     total cpu time spent up to now is       52.4 secs

     total energy              =   -2673.11617986 Ry
     Harris-Foulkes estimate   =   -2674.77717993 Ry
     estimated scf accuracy    <      16.68423238 Ry

     iteration #  3     ecut=   105.00 Ry     beta=0.40
     Davidson diagonalization with overlap
     ethr =  6.47E-04,  avg # of iterations =  3.5

     total cpu time spent up to now is       68.2 secs

     total energy              =   -2673.84149366 Ry
     Harris-Foulkes estimate   =   -2674.37352708 Ry
     estimated scf accuracy    <       5.14163790 Ry

     iteration #  4     ecut=   105.00 Ry     beta=0.40
     Davidson diagonalization with overlap
     ethr =  6.47E-04,  avg # of iterations =  2.1

     total cpu time spent up to now is       80.9 secs

     total energy              =   -2673.87465822 Ry
     Harris-Foulkes estimate   =   -2674.49440748 Ry
     estimated scf accuracy    <       9.41278424 Ry

     iteration #  5     ecut=   105.00 Ry     beta=0.40
     Davidson diagonalization with overlap
     ethr =  6.47E-04,  avg # of iterations =  2.0

     total cpu time spent up to now is       92.5 secs

     total energy              =   -2674.10703827 Ry
     Harris-Foulkes estimate   =   -2674.15615411 Ry
     estimated scf accuracy    <       0.64070734 Ry

     iteration #  6     ecut=   105.00 Ry     beta=0.40
     Davidson diagonalization with overlap
     ethr =  4.64E-04,  avg # of iterations =  1.0

     total cpu time spent up to now is      102.8 secs

     total energy              =   -2674.13186340 Ry
     Harris-Foulkes estimate   =   -2674.14868644 Ry
     estimated scf accuracy    <       0.27920142 Ry

     iteration #  7     ecut=   105.00 Ry     beta=0.40
     Davidson diagonalization with overlap
     ethr =  2.02E-04,  avg # of iterations =  1.0

     total cpu time spent up to now is      115.0 secs

     total energy              =   -2674.13833379 Ry
     Harris-Foulkes estimate   =   -2674.13966515 Ry
     estimated scf accuracy    <       0.00866045 Ry

     iteration #  8     ecut=   105.00 Ry     beta=0.40
     Davidson diagonalization with overlap
     ethr =  6.28E-06,  avg # of iterations =  4.4

     total cpu time spent up to now is      131.3 secs

     total energy              =   -2674.13944025 Ry
     Harris-Foulkes estimate   =   -2674.13975376 Ry
     estimated scf accuracy    <       0.00500355 Ry

     iteration #  9     ecut=   105.00 Ry     beta=0.40
     Davidson diagonalization with overlap
     ethr =  3.63E-06,  avg # of iterations =  1.0

     total cpu time spent up to now is      141.6 secs

     total energy              =   -2674.13963684 Ry
     Harris-Foulkes estimate   =   -2674.13968257 Ry
     estimated scf accuracy    <       0.00068675 Ry

     iteration # 10     ecut=   105.00 Ry     beta=0.40
     Davidson diagonalization with overlap
     ethr =  4.98E-07,  avg # of iterations =  2.7

     total cpu time spent up to now is      154.5 secs

     total energy              =   -2674.13969197 Ry
     Harris-Foulkes estimate   =   -2674.13969702 Ry
     estimated scf accuracy    <       0.00008896 Ry

     iteration # 11     ecut=   105.00 Ry     beta=0.40
     Davidson diagonalization with overlap
     ethr =  6.45E-08,  avg # of iterations =  3.5

     total cpu time spent up to now is      172.3 secs

     total energy              =   -2674.13971778 Ry
     Harris-Foulkes estimate   =   -2674.13971817 Ry
     estimated scf accuracy    <       0.00000238 Ry

     iteration # 12     ecut=   105.00 Ry     beta=0.40
     Davidson diagonalization with overlap
     ethr =  1.72E-09,  avg # of iterations =  2.8

     total cpu time spent up to now is      187.6 secs

     total energy              =   -2674.13971826 Ry
     Harris-Foulkes estimate   =   -2674.13971831 Ry
     estimated scf accuracy    <       0.00000036 Ry

     iteration # 13     ecut=   105.00 Ry     beta=0.40
     Davidson diagonalization with overlap
     ethr =  2.60E-10,  avg # of iterations =  1.9

     total cpu time spent up to now is      199.0 secs

     total energy              =   -2674.13971830 Ry
     Harris-Foulkes estimate   =   -2674.13971831 Ry
     estimated scf accuracy    <       0.00000020 Ry

     iteration # 14     ecut=   105.00 Ry     beta=0.40
     Davidson diagonalization with overlap
     ethr =  1.44E-10,  avg # of iterations =  1.0

     total cpu time spent up to now is      209.3 secs

     total energy              =   -2674.13971831 Ry
     Harris-Foulkes estimate   =   -2674.13971831 Ry
     estimated scf accuracy    <          8.6E-09 Ry

     iteration # 15     ecut=   105.00 Ry     beta=0.40
     Davidson diagonalization with overlap
     ethr =  6.22E-12,  avg # of iterations =  3.8

     total cpu time spent up to now is      233.7 secs

     total energy              =   -2674.13971832 Ry
     Harris-Foulkes estimate   =   -2674.13971832 Ry
     estimated scf accuracy    <          3.9E-09 Ry

     iteration # 16     ecut=   105.00 Ry     beta=0.40
     Davidson diagonalization with overlap
     ethr =  2.86E-12,  avg # of iterations =  1.0

     total cpu time spent up to now is      244.1 secs

     total energy              =   -2674.13971832 Ry
     Harris-Foulkes estimate   =   -2674.13971832 Ry
     estimated scf accuracy    <          5.7E-09 Ry

     iteration # 17     ecut=   105.00 Ry     beta=0.40
     Davidson diagonalization with overlap
     ethr =  2.86E-12,  avg # of iterations =  1.0

     total cpu time spent up to now is      254.4 secs

     End of self-consistent calculation

          k = 0.0000 0.0000 0.0000 ( 12155 PWs)   bands (ev):

   -68.8289 -68.8193 -68.6376 -68.6374 -68.4751 -68.4718 -68.1948 -68.1898
   -35.5768 -35.5549 -35.0336 -34.9897 -34.8763 -34.7702 -34.7680 -34.7293
   -34.7205 -34.6591 -34.6335 -34.6251 -34.5887 -34.5427 -34.5103 -34.4867
   -34.4866 -34.4125 -34.3452 -34.3251 -34.1790 -34.1674 -34.1631 -34.1354
     0.2724   1.5684   9.8486  11.1181  11.6813  11.9054  12.9355  13.0351
    13.7673  14.1167  14.4032  14.5061  14.5540  14.6420  14.6765  14.7175
    15.6965  15.7506  15.7650  15.8617  16.1103  16.2705  16.7721  16.8778
    17.1602  17.4368  17.6092  17.6365  17.6973  17.9448  17.9480  18.1397
    18.2026  18.3122  18.5079  18.6829  18.7149  18.8045  18.9663  18.9721
    19.0751  19.0830  19.1128  19.2694  19.6449  19.7020  19.8195  19.8937
    21.1031  22.0299  23.1013

     occupation numbers 
     1.0000   1.0000   1.0000   1.0000   1.0000   1.0000   1.0000   1.0000
     1.0000   1.0000   1.0000   1.0000   1.0000   1.0000   1.0000   1.0000
     1.0000   1.0000   1.0000   1.0000   1.0000   1.0000   1.0000   1.0000
     1.0000   1.0000   1.0000   1.0000   1.0000   1.0000   1.0000   1.0000
     1.0000   1.0000   1.0000   1.0000   1.0000   1.0000   1.0000   1.0000
     1.0000   1.0000   1.0000   1.0000   1.0000   1.0000   1.0000   1.0000
     1.0000   1.0000   1.0000   1.0000   1.0000   1.0000   1.0000   1.0000
     1.0000   1.0000   1.0000   1.0000   1.0000   1.0003   1.0003   1.0152
     1.0355   1.0809   0.7955   0.2056   0.1392   0.0362   0.0012   0.0010
     0.0001   0.0000   0.0000   0.0000   0.0000   0.0000   0.0000   0.0000
     0.0000   0.0000   0.0000

          k = 0.0000 0.0000 0.2055 ( 12157 PWs)   bands (ev):

   -68.8287 -68.8193 -68.6386 -68.6363 -68.4756 -68.4716 -68.1948 -68.1899
   -35.5791 -35.5542 -35.0324 -34.9893 -34.8686 -34.7719 -34.7650 -34.7345
   -34.7228 -34.6587 -34.6304 -34.6249 -34.5915 -34.5465 -34.5125 -34.4895
   -34.4861 -34.4064 -34.3445 -34.3261 -34.1800 -34.1679 -34.1624 -34.1355
     0.3211   1.6165   9.8483  11.0050  11.6484  11.7149  12.7707  12.9224
    13.6630  14.0818  14.4912  14.5895  14.7207  14.7618  14.8057  14.9295
    15.7358  15.7718  15.7733  15.8542  16.1029  16.3000  16.6973  16.9338
    16.9708  17.1627  17.7049  17.7172  17.7706  17.8337  18.1194  18.2111
    18.2523  18.2542  18.5155  18.6136  18.6896  18.8213  18.9319  18.9495
    18.9865  19.0459  19.0798  19.2091  19.5517  19.6965  19.7383  19.8554
    21.4052  21.9176  23.0434

     occupation numbers 
     1.0000   1.0000   1.0000   1.0000   1.0000   1.0000   1.0000   1.0000
     1.0000   1.0000   1.0000   1.0000   1.0000   1.0000   1.0000   1.0000
     1.0000   1.0000   1.0000   1.0000   1.0000   1.0000   1.0000   1.0000
     1.0000   1.0000   1.0000   1.0000   1.0000   1.0000   1.0000   1.0000
     1.0000   1.0000   1.0000   1.0000   1.0000   1.0000   1.0000   1.0000
     1.0000   1.0000   1.0000   1.0000   1.0000   1.0000   1.0000   1.0000
     1.0000   1.0000   1.0000   1.0000   1.0000   1.0000   1.0000   1.0000
     1.0000   1.0000   1.0000   1.0000   1.0000   1.0000   1.0110   1.0390
     1.0579   1.0588   0.7694   0.4094   0.1903   0.0269   0.0028   0.0018
     0.0007   0.0001   0.0001   0.0000   0.0000   0.0000   0.0000   0.0000
     0.0000   0.0000   0.0000

          k = 0.0000 0.0000 0.4110 ( 12157 PWs)   bands (ev):

   -68.8281 -68.8193 -68.6394 -68.6352 -68.4766 -68.4714 -68.1948 -68.1901
   -35.5848 -35.5524 -35.0297 -34.9884 -34.8474 -34.7752 -34.7588 -34.7471
   -34.7296 -34.6576 -34.6244 -34.6232 -34.5986 -34.5554 -34.5174 -34.4957
   -34.4851 -34.3921 -34.3435 -34.3293 -34.1818 -34.1690 -34.1607 -34.1358
     0.4431   1.7373   9.8465  10.6296  11.1859  11.5720  12.7083  12.8158
    13.4005  14.3043  14.5889  14.8315  14.8826  15.0854  15.1439  15.3252
    15.7839  15.8159  15.8505  15.8809  16.0603  16.3836  16.4569  16.6468
    16.7867  17.0998  17.5134  17.6492  17.7892  18.0229  18.0834  18.1709
    18.2015  18.4008  18.4154  18.4774  18.5810  18.7351  18.8501  18.8616
    18.8968  18.9436  19.0349  19.0800  19.5620  19.5652  19.6831  19.9350
    21.7769  22.2031  22.2783

     occupation numbers 
     1.0000   1.0000   1.0000   1.0000   1.0000   1.0000   1.0000   1.0000
     1.0000   1.0000   1.0000   1.0000   1.0000   1.0000   1.0000   1.0000
     1.0000   1.0000   1.0000   1.0000   1.0000   1.0000   1.0000   1.0000
     1.0000   1.0000   1.0000   1.0000   1.0000   1.0000   1.0000   1.0000
     1.0000   1.0000   1.0000   1.0000   1.0000   1.0000   1.0000   1.0000
     1.0000   1.0000   1.0000   1.0000   1.0000   1.0000   1.0000   1.0000
     1.0000   1.0000   1.0000   1.0000   1.0000   1.0000   1.0000   1.0000
     1.0000   1.0000   1.0000   1.0000   1.0000   1.0017   1.0058   1.0238
     1.0350   1.0474   1.0280   0.8914   0.5271   0.1061   0.0158   0.0126
     0.0061   0.0021   0.0002   0.0001   0.0000   0.0000   0.0000   0.0000
     0.0000   0.0000   0.0000

          k = 0.0000 0.0000 0.6165 ( 12146 PWs)   bands (ev):

   -68.8274 -68.8192 -68.6400 -68.6343 -68.4775 -68.4712 -68.1949 -68.1903
   -35.5904 -35.5507 -35.0269 -34.9876 -34.8189 -34.7761 -34.7610 -34.7597
   -34.7357 -34.6565 -34.6239 -34.6163 -34.6069 -34.5636 -34.5220 -34.5014
   -34.4845 -34.3766 -34.3436 -34.3349 -34.1829 -34.1701 -34.1589 -34.1361
     0.5717   1.8651   9.8431  10.2153  10.6317  11.4994  12.5393  13.2074
    13.2847  14.4932  14.6641  15.0334  15.1385  15.4534  15.4580  15.5785
    15.7562  15.8629  15.9113  15.9795  16.1843  16.1891  16.3299  16.4108
    16.4674  17.0730  17.3427  17.5332  17.8195  17.8836  17.9086  18.0054
    18.2567  18.2646  18.3312  18.3975  18.4294  18.5744  18.6925  18.7129
    18.7921  19.0106  19.0218  19.0820  19.6564  19.6694  19.7821  20.0070
    21.3615  22.0109  22.7250

     occupation numbers 
     1.0000   1.0000   1.0000   1.0000   1.0000   1.0000   1.0000   1.0000
     1.0000   1.0000   1.0000   1.0000   1.0000   1.0000   1.0000   1.0000
     1.0000   1.0000   1.0000   1.0000   1.0000   1.0000   1.0000   1.0000
     1.0000   1.0000   1.0000   1.0000   1.0000   1.0000   1.0000   1.0000
     1.0000   1.0000   1.0000   1.0000   1.0000   1.0000   1.0000   1.0000
     1.0000   1.0000   1.0000   1.0000   1.0000   1.0000   1.0000   1.0000
     1.0000   1.0000   1.0000   1.0000   1.0000   1.0000   1.0000   1.0000
     1.0000   1.0000   1.0000   1.0000   1.0000   1.0000   1.0001   1.0012
     1.0600   1.0636   1.0833   1.0512   1.0047   0.5519   0.1839   0.1427
     0.0446   0.0004   0.0003   0.0000   0.0000   0.0000   0.0000   0.0000
     0.0000   0.0000   0.0000

          k = 0.0000 0.0000-0.8220 ( 12160 PWs)   bands (ev):

   -68.8271 -68.8192 -68.6401 -68.6340 -68.4779 -68.4712 -68.1949 -68.1904
   -35.5927 -35.5500 -35.0257 -34.9872 -34.7990 -34.7728 -34.7704 -34.7703
   -34.7356 -34.6560 -34.6237 -34.6135 -34.6111 -34.5666 -34.5239 -34.5037
   -34.4843 -34.3689 -34.3440 -34.3389 -34.1832 -34.1706 -34.1581 -34.1362
     0.6272   1.9204   9.8413  10.0455  10.4060  11.4703  12.4776  13.1403
    13.7795  14.1583  14.8941  15.1114  15.3060  15.4090  15.6509  15.7330
    15.8326  15.8481  15.9330  16.0115  16.1148  16.1286  16.2384  16.4356
    16.4555  16.7797  17.4290  17.5182  17.6734  17.7192  17.8976  17.9384
    18.1473  18.2033  18.3610  18.3993  18.4863  18.4898  18.5094  18.7182
    18.7407  19.0057  19.0197  19.1534  19.6635  19.7105  19.9837  20.0351
    20.9201  22.1435  22.7969

     occupation numbers 
     1.0000   1.0000   1.0000   1.0000   1.0000   1.0000   1.0000   1.0000
     1.0000   1.0000   1.0000   1.0000   1.0000   1.0000   1.0000   1.0000
     1.0000   1.0000   1.0000   1.0000   1.0000   1.0000   1.0000   1.0000
     1.0000   1.0000   1.0000   1.0000   1.0000   1.0000   1.0000   1.0000
     1.0000   1.0000   1.0000   1.0000   1.0000   1.0000   1.0000   1.0000
     1.0000   1.0000   1.0000   1.0000   1.0000   1.0000   1.0000   1.0000
     1.0000   1.0000   1.0000   1.0000   1.0000   1.0000   1.0000   1.0000
     1.0000   1.0000   1.0000   1.0000   1.0000   1.0000   1.0001   1.0002
     1.0170   1.0358   1.0781   1.0492   0.8652   0.8544   0.7903   0.1332
     0.0981   0.0004   0.0003   0.0000   0.0000   0.0000   0.0000   0.0000
     0.0000   0.0000   0.0000

          k = 0.0000 0.1918 0.0000 ( 12165 PWs)   bands (ev):

   -68.8285 -68.8193 -68.6379 -68.6375 -68.4752 -68.4716 -68.1948 -68.1900
   -35.5808 -35.5539 -35.0290 -34.9867 -34.8723 -34.7691 -34.7667 -34.7301
   -34.7238 -34.6874 -34.6309 -34.6051 -34.5887 -34.5425 -34.5076 -34.4925
   -34.4910 -34.4103 -34.3418 -34.3272 -34.1767 -34.1646 -34.1633 -34.1393
     0.3271   1.6264   9.8314  11.1142  11.4480  11.8616  12.8006  12.8162
    13.8477  13.8836  14.4834  14.5580  14.6289  14.6878  14.8365  14.9904
    15.7272  15.7912  15.7997  15.8614  16.1248  16.2321  16.7976  16.8245
    17.1140  17.4545  17.5059  17.5532  17.7798  17.9528  17.9893  18.0634
    18.3334  18.4211  18.5204  18.6468  18.6553  18.7814  18.9143  18.9820
    19.0110  19.0311  19.0624  19.2552  19.5423  19.6399  19.8347  19.9248
    21.3556  22.0479  22.9680

     occupation numbers 
     1.0000   1.0000   1.0000   1.0000   1.0000   1.0000   1.0000   1.0000
     1.0000   1.0000   1.0000   1.0000   1.0000   1.0000   1.0000   1.0000
     1.0000   1.0000   1.0000   1.0000   1.0000   1.0000   1.0000   1.0000
     1.0000   1.0000   1.0000   1.0000   1.0000   1.0000   1.0000   1.0000
     1.0000   1.0000   1.0000   1.0000   1.0000   1.0000   1.0000   1.0000
     1.0000   1.0000   1.0000   1.0000   1.0000   1.0000   1.0000   1.0000
     1.0000   1.0000   1.0000   1.0000   1.0000   1.0000   1.0000   1.0000
     1.0000   1.0000   1.0000   1.0000   1.0000   1.0003   1.0008   1.0040
     1.0833   1.0191   0.7521   0.3021   0.2774   0.0531   0.0041   0.0008
     0.0004   0.0002   0.0001   0.0000   0.0000   0.0000   0.0000   0.0000
     0.0000   0.0000   0.0000

          k = 0.0000 0.1918 0.2055 ( 12162 PWs)   bands (ev):

   -68.8282 -68.8193 -68.6387 -68.6366 -68.4756 -68.4715 -68.1948 -68.1901
   -35.5832 -35.5532 -35.0282 -34.9862 -34.8650 -34.7724 -34.7638 -34.7373
   -34.7263 -34.6801 -34.6306 -34.6058 -34.5920 -34.5465 -34.5095 -34.4926
   -34.4904 -34.4051 -34.3416 -34.3281 -34.1774 -34.1641 -34.1634 -34.1392
     0.3757   1.6749   9.8284  10.9939  11.4182  11.6933  12.4930  12.8821
    13.6164  14.0451  14.5556  14.6322  14.7728  14.8065  14.9605  15.1210
    15.7603  15.7811  15.8132  15.8302  16.1912  16.2822  16.6570  16.8824
    16.9657  17.1913  17.5711  17.6476  17.8326  17.8352  18.0650  18.2060
    18.3722  18.3852  18.5310  18.5650  18.6396  18.7851  18.9063  18.9108
    19.0017  19.0178  19.0186  19.2239  19.4645  19.6187  19.7178  20.0391
    21.5390  21.9948  23.0782

     occupation numbers 
     1.0000   1.0000   1.0000   1.0000   1.0000   1.0000   1.0000   1.0000
     1.0000   1.0000   1.0000   1.0000   1.0000   1.0000   1.0000   1.0000
     1.0000   1.0000   1.0000   1.0000   1.0000   1.0000   1.0000   1.0000
     1.0000   1.0000   1.0000   1.0000   1.0000   1.0000   1.0000   1.0000
     1.0000   1.0000   1.0000   1.0000   1.0000   1.0000   1.0000   1.0000
     1.0000   1.0000   1.0000   1.0000   1.0000   1.0000   1.0000   1.0000
     1.0000   1.0000   1.0000   1.0000   1.0000   1.0000   1.0000   1.0000
     1.0000   1.0000   1.0000   1.0000   1.0000   1.0000   1.0041   1.0369
     1.0725   1.0632   0.7140   0.5872   0.3240   0.0500   0.0049   0.0045
     0.0005   0.0003   0.0003   0.0000   0.0000   0.0000   0.0000   0.0000
     0.0000   0.0000   0.0000

          k = 0.0000 0.1918 0.4110 ( 12164 PWs)   bands (ev):

   -68.8276 -68.8193 -68.6395 -68.6355 -68.4765 -68.4713 -68.1948 -68.1903
   -35.5891 -35.5515 -35.0262 -34.9848 -34.8448 -34.7791 -34.7577 -34.7518
   -34.7335 -34.6655 -34.6298 -34.6082 -34.5999 -34.5564 -34.5127 -34.4960
   -34.4872 -34.3925 -34.3416 -34.3311 -34.1789 -34.1647 -34.1620 -34.1392
     0.4973   1.7966   9.8201  10.6064  11.1883  11.3462  12.2739  12.9847
    13.3457  14.3018  14.6467  14.8719  14.9714  15.0842  15.2772  15.3680
    15.6820  15.8524  15.8988  15.9392  16.2209  16.3910  16.4296  16.7040
    16.7452  17.0219  17.5184  17.6307  17.6754  17.9194  18.0695  18.2533
    18.2665  18.4118  18.4794  18.5221  18.5702  18.7167  18.8137  18.8533
    18.8900  18.9617  19.0752  19.0800  19.4143  19.5748  19.6572  20.2086
    21.7484  22.3078  22.3550

     occupation numbers 
     1.0000   1.0000   1.0000   1.0000   1.0000   1.0000   1.0000   1.0000
     1.0000   1.0000   1.0000   1.0000   1.0000   1.0000   1.0000   1.0000
     1.0000   1.0000   1.0000   1.0000   1.0000   1.0000   1.0000   1.0000
     1.0000   1.0000   1.0000   1.0000   1.0000   1.0000   1.0000   1.0000
     1.0000   1.0000   1.0000   1.0000   1.0000   1.0000   1.0000   1.0000
     1.0000   1.0000   1.0000   1.0000   1.0000   1.0000   1.0000   1.0000
     1.0000   1.0000   1.0000   1.0000   1.0000   1.0000   1.0000   1.0000
     1.0000   1.0000   1.0000   1.0000   1.0000   1.0001   1.0045   1.0584
     1.0645   1.0332   0.8856   0.7461   0.5677   0.1359   0.0308   0.0148
     0.0070   0.0013   0.0001   0.0001   0.0000   0.0000   0.0000   0.0000
     0.0000   0.0000   0.0000

          k = 0.0000 0.1918 0.6165 ( 12174 PWs)   bands (ev):

   -68.8270 -68.8192 -68.6400 -68.6347 -68.4773 -68.4712 -68.1949 -68.1905
   -35.5949 -35.5498 -35.0243 -34.9835 -34.8175 -34.7837 -34.7655 -34.7591
   -34.7392 -34.6517 -34.6288 -34.6122 -34.6084 -34.5662 -34.5151 -34.4994
   -34.4852 -34.3786 -34.3423 -34.3362 -34.1798 -34.1655 -34.1601 -34.1392
     0.6256   1.9256   9.8105  10.1839  10.6423  11.2723  12.1908  13.1610
    13.4065  14.5439  14.6320  15.0933  15.1753  15.3581  15.4449  15.6391
    15.7223  15.9333  15.9568  16.1659  16.2025  16.2428  16.3837  16.3960
    16.6241  16.9142  17.2694  17.5718  17.7439  17.8515  17.8553  18.1597
    18.1927  18.2855  18.3751  18.4854  18.5164  18.5946  18.7311  18.7685
    18.7826  18.9522  19.0271  19.0544  19.4354  19.6254  19.8484  20.3720
    21.3578  21.9186  22.7999

     occupation numbers 
     1.0000   1.0000   1.0000   1.0000   1.0000   1.0000   1.0000   1.0000
     1.0000   1.0000   1.0000   1.0000   1.0000   1.0000   1.0000   1.0000
     1.0000   1.0000   1.0000   1.0000   1.0000   1.0000   1.0000   1.0000
     1.0000   1.0000   1.0000   1.0000   1.0000   1.0000   1.0000   1.0000
     1.0000   1.0000   1.0000   1.0000   1.0000   1.0000   1.0000   1.0000
     1.0000   1.0000   1.0000   1.0000   1.0000   1.0000   1.0000   1.0000
     1.0000   1.0000   1.0000   1.0000   1.0000   1.0000   1.0000   1.0000
     1.0000   1.0000   1.0000   1.0000   1.0000   1.0000   1.0000   1.0204
     1.0315   1.0725   1.0707   0.8678   0.7661   0.4771   0.1122   0.0650
     0.0520   0.0017   0.0002   0.0001   0.0000   0.0000   0.0000   0.0000
     0.0000   0.0000   0.0000

          k = 0.0000 0.1918-0.8220 ( 12140 PWs)   bands (ev):

   -68.8267 -68.8192 -68.6401 -68.6344 -68.4777 -68.4712 -68.1949 -68.1906
   -35.5973 -35.5491 -35.0234 -34.9830 -34.7990 -34.7845 -34.7718 -34.7696
   -34.7386 -34.6453 -34.6283 -34.6148 -34.6123 -34.5701 -34.5160 -34.5007
   -34.4846 -34.3717 -34.3429 -34.3397 -34.1800 -34.1658 -34.1593 -34.1393
     0.6810   1.9815   9.8062  10.0104  10.4199  11.2431  12.1565  13.0972
    13.9343  14.1523  14.8762  15.0235  15.3413  15.3682  15.6763  15.7266
    15.8216  15.8313  15.9958  16.1758  16.1764  16.2795  16.2933  16.4847
    16.6122  16.7186  17.1226  17.6599  17.6818  17.7146  17.8484  18.0201
    18.1514  18.2376  18.3478  18.3970  18.5508  18.5832  18.6542  18.7092
    18.8042  18.9231  19.0267  19.0449  19.4387  19.6916  20.0693  20.4257
    20.8602  22.0178  22.9100

     occupation numbers 
     1.0000   1.0000   1.0000   1.0000   1.0000   1.0000   1.0000   1.0000
     1.0000   1.0000   1.0000   1.0000   1.0000   1.0000   1.0000   1.0000
     1.0000   1.0000   1.0000   1.0000   1.0000   1.0000   1.0000   1.0000
     1.0000   1.0000   1.0000   1.0000   1.0000   1.0000   1.0000   1.0000
     1.0000   1.0000   1.0000   1.0000   1.0000   1.0000   1.0000   1.0000
     1.0000   1.0000   1.0000   1.0000   1.0000   1.0000   1.0000   1.0000
     1.0000   1.0000   1.0000   1.0000   1.0000   1.0000   1.0000   1.0000
     1.0000   1.0000   1.0000   1.0000   1.0000   1.0000   1.0000   1.0016
     1.0181   1.0510   1.0820   1.0517   0.6407   0.5191   0.2807   0.1496
     0.0363   0.0034   0.0002   0.0001   0.0000   0.0000   0.0000   0.0000
     0.0000   0.0000   0.0000

          k = 0.0000 0.3836 0.0000 ( 12139 PWs)   bands (ev):

   -68.8272 -68.8193 -68.6390 -68.6374 -68.4753 -68.4712 -68.1948 -68.1906
   -35.5906 -35.5514 -35.0170 -34.9794 -34.8616 -34.7660 -34.7632 -34.7327
   -34.7325 -34.7207 -34.6455 -34.5895 -34.5714 -34.5418 -34.5059 -34.5016
   -34.5004 -34.4039 -34.3346 -34.3331 -34.1705 -34.1686 -34.1534 -34.1493
     0.4710   1.7801   9.7877  10.8876  11.0268  11.5359  12.5745  12.6990
    13.5588  14.0824  14.5938  14.7209  14.8125  14.8250  15.1977  15.4017
    15.7909  15.8056  15.9051  15.9466  16.1284  16.1665  16.6091  16.9211
    17.0665  17.3059  17.3800  17.4790  17.8957  17.9495  17.9842  18.0375
    18.4188  18.4208  18.4946  18.6495  18.6552  18.7524  18.7609  18.8195
    18.8716  18.8853  19.0192  19.2292  19.2353  19.6379  19.8763  20.0110
    21.9430  22.1723  22.5072

     occupation numbers 
     1.0000   1.0000   1.0000   1.0000   1.0000   1.0000   1.0000   1.0000
     1.0000   1.0000   1.0000   1.0000   1.0000   1.0000   1.0000   1.0000
     1.0000   1.0000   1.0000   1.0000   1.0000   1.0000   1.0000   1.0000
     1.0000   1.0000   1.0000   1.0000   1.0000   1.0000   1.0000   1.0000
     1.0000   1.0000   1.0000   1.0000   1.0000   1.0000   1.0000   1.0000
     1.0000   1.0000   1.0000   1.0000   1.0000   1.0000   1.0000   1.0000
     1.0000   1.0000   1.0000   1.0000   1.0000   1.0000   1.0000   1.0000
     1.0000   1.0000   1.0000   1.0000   1.0001   1.0003   1.0007   1.0024
     1.0227   1.0195   0.8393   0.2943   0.2777   0.0829   0.0731   0.0278
     0.0103   0.0077   0.0003   0.0000   0.0000   0.0000   0.0000   0.0000
     0.0000   0.0000   0.0000

          k = 0.0000 0.3836 0.2055 ( 12173 PWs)   bands (ev):

   -68.8270 -68.8193 -68.6393 -68.6370 -68.4756 -68.4712 -68.1948 -68.1906
   -35.5933 -35.5508 -35.0171 -34.9782 -34.8552 -34.7757 -34.7605 -34.7439
   -34.7356 -34.7021 -34.6451 -34.5940 -34.5742 -34.5462 -34.5047 -34.5002
   -34.4976 -34.4008 -34.3353 -34.3338 -34.1710 -34.1678 -34.1536 -34.1489
     0.5193   1.8296   9.7781  10.8318  10.9593  11.4202  12.1095  12.9153
    13.4284  14.1741  14.6930  14.7544  14.9234  14.9279  15.2874  15.4410
    15.6367  15.9025  15.9204  15.9634  16.2035  16.3804  16.4839  16.8902
    16.9895  17.1560  17.3323  17.4787  17.8544  17.9528  17.9962  18.1641
    18.4070  18.4559  18.5014  18.5785  18.6395  18.6593  18.8026  18.8324
    18.8744  18.9764  19.0603  19.1567  19.2543  19.5710  19.7612  20.2699
    21.7945  22.2337  22.6960

     occupation numbers 
     1.0000   1.0000   1.0000   1.0000   1.0000   1.0000   1.0000   1.0000
     1.0000   1.0000   1.0000   1.0000   1.0000   1.0000   1.0000   1.0000
     1.0000   1.0000   1.0000   1.0000   1.0000   1.0000   1.0000   1.0000
     1.0000   1.0000   1.0000   1.0000   1.0000   1.0000   1.0000   1.0000
     1.0000   1.0000   1.0000   1.0000   1.0000   1.0000   1.0000   1.0000
     1.0000   1.0000   1.0000   1.0000   1.0000   1.0000   1.0000   1.0000
     1.0000   1.0000   1.0000   1.0000   1.0000   1.0000   1.0000   1.0000
     1.0000   1.0000   1.0000   1.0000   1.0000   1.0003   1.0009   1.0217
     1.0397   0.9484   0.8174   0.5364   0.3243   0.2661   0.0374   0.0220
     0.0097   0.0009   0.0001   0.0000   0.0000   0.0000   0.0000   0.0000
     0.0000   0.0000   0.0000

          k = 0.0000 0.3836 0.4110 ( 12149 PWs)   bands (ev):

   -68.8265 -68.8192 -68.6397 -68.6363 -68.4762 -68.4712 -68.1948 -68.1909
   -35.5998 -35.5492 -35.0173 -34.9757 -34.8375 -34.7920 -34.7584 -34.7547
   -34.7435 -34.6747 -34.6436 -34.6035 -34.5835 -34.5576 -34.5025 -34.4970
   -34.4914 -34.3926 -34.3371 -34.3360 -34.1717 -34.1656 -34.1539 -34.1481
     0.6401   1.9542   9.7546  10.5307  10.7959  11.1670  11.5901  13.1742
    13.2114  14.3600  14.8175  14.9490  15.1116  15.1441  15.3417  15.5149
    15.6888  15.9475  16.1016  16.1362  16.2204  16.3173  16.6894  16.7161
    16.8460  16.8897  17.3196  17.4278  17.8270  17.8431  17.9140  18.2739
    18.3101  18.3614  18.5153  18.5363  18.6088  18.7322  18.7512  18.8290
    18.9356  19.0025  19.0868  19.1406  19.1867  19.5688  19.6515  20.5719
    21.6472  22.4208  22.4678

     occupation numbers 
     1.0000   1.0000   1.0000   1.0000   1.0000   1.0000   1.0000   1.0000
     1.0000   1.0000   1.0000   1.0000   1.0000   1.0000   1.0000   1.0000
     1.0000   1.0000   1.0000   1.0000   1.0000   1.0000   1.0000   1.0000
     1.0000   1.0000   1.0000   1.0000   1.0000   1.0000   1.0000   1.0000
     1.0000   1.0000   1.0000   1.0000   1.0000   1.0000   1.0000   1.0000
     1.0000   1.0000   1.0000   1.0000   1.0000   1.0000   1.0000   1.0000
     1.0000   1.0000   1.0000   1.0000   1.0000   1.0000   1.0000   1.0000
     1.0000   1.0000   1.0000   1.0000   1.0000   1.0000   1.0001   1.0677
     1.0804   1.0779   0.7700   0.6948   0.4264   0.1104   0.0843   0.0235
     0.0025   0.0005   0.0000   0.0000   0.0000   0.0000   0.0000   0.0000
     0.0000   0.0000   0.0000

          k = 0.0000 0.3836 0.6165 ( 12162 PWs)   bands (ev):

   -68.8259 -68.8192 -68.6400 -68.6357 -68.4768 -68.4712 -68.1948 -68.1911
   -35.6061 -35.5476 -35.0174 -34.9735 -34.8140 -34.8039 -34.7707 -34.7593
   -34.7460 -34.6469 -34.6417 -34.6122 -34.5994 -34.5697 -34.5005 -34.4942
   -34.4868 -34.3830 -34.3397 -34.3392 -34.1720 -34.1634 -34.1543 -34.1475
     0.7676   2.0867   9.7304  10.1035  10.6326  10.7556  11.4865  13.0541
    13.6239  14.5706  14.7019  15.0062  15.2427  15.4299  15.4406  15.7656
    15.7688  15.9686  16.0435  16.2235  16.2691  16.4524  16.4873  16.7361
    16.8070  17.0108  17.0282  17.5822  17.6458  17.7951  17.8962  18.1646
    18.2513  18.2668  18.3587  18.3974  18.5470  18.7013  18.7332  18.9030
    18.9391  19.0297  19.0523  19.0827  19.1326  19.5901  19.7946  20.8423
    21.2894  21.6062  22.5516

     occupation numbers 
     1.0000   1.0000   1.0000   1.0000   1.0000   1.0000   1.0000   1.0000
     1.0000   1.0000   1.0000   1.0000   1.0000   1.0000   1.0000   1.0000
     1.0000   1.0000   1.0000   1.0000   1.0000   1.0000   1.0000   1.0000
     1.0000   1.0000   1.0000   1.0000   1.0000   1.0000   1.0000   1.0000
     1.0000   1.0000   1.0000   1.0000   1.0000   1.0000   1.0000   1.0000
     1.0000   1.0000   1.0000   1.0000   1.0000   1.0000   1.0000   1.0000
     1.0000   1.0000   1.0000   1.0000   1.0000   1.0000   1.0000   1.0000
     1.0000   1.0000   1.0000   1.0000   1.0000   1.0000   1.0001   1.0219
     1.0575   1.0646   1.0789   1.0513   0.6550   0.1653   0.1089   0.0053
     0.0023   0.0002   0.0001   0.0000   0.0000   0.0000   0.0000   0.0000
     0.0000   0.0000   0.0000

          k = 0.0000 0.3836-0.8220 ( 12162 PWs)   bands (ev):

   -68.8257 -68.8192 -68.6401 -68.6355 -68.4771 -68.4712 -68.1948 -68.1912
   -35.6087 -35.5470 -35.0174 -34.9726 -34.8081 -34.7989 -34.7755 -34.7688
   -34.7443 -34.6407 -34.6240 -34.6182 -34.6158 -34.5748 -34.4996 -34.4933
   -34.4853 -34.3783 -34.3419 -34.3401 -34.1720 -34.1624 -34.1545 -34.1473
     0.8225   2.1443   9.7203   9.9248  10.4409  10.7017  11.4717  12.9988
    14.1754  14.2661  14.7331  14.8477  15.3859  15.5696  15.6578  15.7242
    15.7796  15.9367  16.1042  16.1132  16.2905  16.5458  16.5811  16.6792
    16.7980  16.9017  17.1203  17.5605  17.6067  17.7588  17.9725  18.1122
    18.2066  18.2158  18.2307  18.2549  18.5520  18.6881  18.7759  18.8529
    18.9735  19.0057  19.0146  19.0365  19.1244  19.6125  20.0993  20.6523
    20.9540  21.6007  22.5584

     occupation numbers 
     1.0000   1.0000   1.0000   1.0000   1.0000   1.0000   1.0000   1.0000
     1.0000   1.0000   1.0000   1.0000   1.0000   1.0000   1.0000   1.0000
     1.0000   1.0000   1.0000   1.0000   1.0000   1.0000   1.0000   1.0000
     1.0000   1.0000   1.0000   1.0000   1.0000   1.0000   1.0000   1.0000
     1.0000   1.0000   1.0000   1.0000   1.0000   1.0000   1.0000   1.0000
     1.0000   1.0000   1.0000   1.0000   1.0000   1.0000   1.0000   1.0000
     1.0000   1.0000   1.0000   1.0000   1.0000   1.0000   1.0000   1.0000
     1.0000   1.0000   1.0000   1.0000   1.0000   1.0000   1.0005   1.0097
     1.0371   1.0411   1.0478   1.0591   0.6360   0.1935   0.0579   0.0149
     0.0010   0.0004   0.0003   0.0002   0.0000   0.0000   0.0000   0.0000
     0.0000   0.0000   0.0000

          k = 0.0000 0.5754 0.0000 ( 12158 PWs)   bands (ev):

   -68.8258 -68.8192 -68.6403 -68.6372 -68.4754 -68.4708 -68.1948 -68.1911
   -35.6015 -35.5486 -35.0022 -34.9713 -34.8478 -34.7617 -34.7590 -34.7457
   -34.7444 -34.7360 -34.6627 -34.5912 -34.5456 -34.5410 -34.5194 -34.5131
   -34.4918 -34.3945 -34.3420 -34.3285 -34.1731 -34.1634 -34.1612 -34.1429
     0.6452   1.9689   9.7379  10.2868  10.6401  11.2379  12.3579  13.0790
    13.3159  14.4424  14.5609  14.9552  14.9773  15.0818  15.5887  15.6351
    15.6663  15.9078  15.9698  16.1157  16.1818  16.2117  16.3818  16.9793
    17.0765  17.1420  17.2236  17.4404  17.7086  17.8931  18.0884  18.1169
    18.1832  18.3095  18.3468  18.3857  18.4702  18.6164  18.6522  18.7758
    18.8208  18.9886  19.0012  19.0370  19.3010  19.6791  19.9251  20.1169
    21.8513  22.2818  22.4652

     occupation numbers 
     1.0000   1.0000   1.0000   1.0000   1.0000   1.0000   1.0000   1.0000
     1.0000   1.0000   1.0000   1.0000   1.0000   1.0000   1.0000   1.0000
     1.0000   1.0000   1.0000   1.0000   1.0000   1.0000   1.0000   1.0000
     1.0000   1.0000   1.0000   1.0000   1.0000   1.0000   1.0000   1.0000
     1.0000   1.0000   1.0000   1.0000   1.0000   1.0000   1.0000   1.0000
     1.0000   1.0000   1.0000   1.0000   1.0000   1.0000   1.0000   1.0000
     1.0000   1.0000   1.0000   1.0000   1.0000   1.0000   1.0000   1.0000
     1.0000   1.0000   1.0000   1.0000   1.0000   1.0001   1.0064   1.0105
     1.0280   1.0803   1.0822   1.0628   0.9115   0.3998   0.2864   0.0581
     0.0272   0.0007   0.0005   0.0002   0.0000   0.0000   0.0000   0.0000
     0.0000   0.0000   0.0000

          k = 0.0000 0.5754 0.2055 ( 12154 PWs)   bands (ev):

   -68.8256 -68.8192 -68.6402 -68.6372 -68.4756 -68.4708 -68.1948 -68.1912
   -35.6045 -35.5480 -35.0038 -34.9693 -34.8425 -34.7840 -34.7563 -34.7476
   -34.7475 -34.7150 -34.6622 -34.5970 -34.5496 -34.5458 -34.5124 -34.5087
   -34.4908 -34.3933 -34.3421 -34.3297 -34.1721 -34.1637 -34.1603 -34.1428
     0.6931   2.0199   9.7215  10.2497  10.6551  11.0328  11.9840  13.2269
    13.2332  14.4578  14.6656  15.0023  15.0897  15.1071  15.3910  15.6228
    15.7584  15.9336  16.0496  16.1576  16.3072  16.3312  16.5035  16.9218
    17.0553  17.0792  17.1144  17.2558  17.7792  17.9854  18.0393  18.0799
    18.2041  18.3517  18.4361  18.4452  18.4843  18.6214  18.6215  18.7829
    18.8982  18.9548  18.9735  19.1409  19.2610  19.6046  19.8466  20.4026
    21.8358  22.0394  22.3486

     occupation numbers 
     1.0000   1.0000   1.0000   1.0000   1.0000   1.0000   1.0000   1.0000
     1.0000   1.0000   1.0000   1.0000   1.0000   1.0000   1.0000   1.0000
     1.0000   1.0000   1.0000   1.0000   1.0000   1.0000   1.0000   1.0000
     1.0000   1.0000   1.0000   1.0000   1.0000   1.0000   1.0000   1.0000
     1.0000   1.0000   1.0000   1.0000   1.0000   1.0000   1.0000   1.0000
     1.0000   1.0000   1.0000   1.0000   1.0000   1.0000   1.0000   1.0000
     1.0000   1.0000   1.0000   1.0000   1.0000   1.0000   1.0000   1.0000
     1.0000   1.0000   1.0000   1.0000   1.0000   1.0007   1.0024   1.0055
     1.0361   1.0811   0.9921   0.9731   0.8711   0.3829   0.3827   0.0519
     0.0059   0.0016   0.0010   0.0000   0.0000   0.0000   0.0000   0.0000
     0.0000   0.0000   0.0000

          k = 0.0000 0.5754 0.4110 ( 12158 PWs)   bands (ev):

   -68.8252 -68.8192 -68.6402 -68.6369 -68.4759 -68.4710 -68.1948 -68.1915
   -35.6115 -35.5466 -35.0069 -34.9654 -34.8280 -34.8080 -34.7616 -34.7560
   -34.7504 -34.6808 -34.6605 -34.6079 -34.5629 -34.5581 -34.4991 -34.4982
   -34.4882 -34.3903 -34.3427 -34.3327 -34.1696 -34.1637 -34.1587 -34.1427
     0.8130   2.1486   9.6822  10.1660  10.4794  10.7582  11.3044  13.0730
    13.5049  14.4756  14.9216  15.0695  15.0879  15.2081  15.3638  15.7348
    15.8783  15.9567  16.0477  16.2414  16.4458  16.6187  16.6593  16.8536
    16.9779  17.1063  17.1446  17.1786  17.5781  17.9102  17.9463  18.1697
    18.2769  18.3062  18.4325  18.4727  18.5597  18.6269  18.6711  18.8160
    18.9430  18.9533  19.1472  19.2184  19.2186  19.4867  19.7295  20.7391
    21.5083  21.6594  22.4628

     occupation numbers 
     1.0000   1.0000   1.0000   1.0000   1.0000   1.0000   1.0000   1.0000
     1.0000   1.0000   1.0000   1.0000   1.0000   1.0000   1.0000   1.0000
     1.0000   1.0000   1.0000   1.0000   1.0000   1.0000   1.0000   1.0000
     1.0000   1.0000   1.0000   1.0000   1.0000   1.0000   1.0000   1.0000
     1.0000   1.0000   1.0000   1.0000   1.0000   1.0000   1.0000   1.0000
     1.0000   1.0000   1.0000   1.0000   1.0000   1.0000   1.0000   1.0000
     1.0000   1.0000   1.0000   1.0000   1.0000   1.0000   1.0000   1.0000
     1.0000   1.0000   1.0000   1.0000   1.0000   1.0001   1.0003   1.0234
     1.0690   1.0794   0.9991   0.9048   0.6072   0.3645   0.2348   0.0296
     0.0021   0.0017   0.0000   0.0000   0.0000   0.0000   0.0000   0.0000
     0.0000   0.0000   0.0000

          k = 0.0000 0.5754 0.6165 ( 12168 PWs)   bands (ev):

   -68.8247 -68.8192 -68.6401 -68.6367 -68.4763 -68.4711 -68.1948 -68.1917
   -35.6184 -35.5451 -35.0093 -34.9624 -34.8240 -34.8094 -34.7746 -34.7662
   -34.7458 -34.6580 -34.6469 -34.6165 -34.5842 -34.5712 -34.4891 -34.4886
   -34.4851 -34.3867 -34.3438 -34.3358 -34.1670 -34.1633 -34.1574 -34.1425
     0.9394   2.2860   9.6432  10.0063  10.1171  10.6836  10.8191  12.9466
    13.9105  14.4845  14.8983  14.9192  15.2489  15.4024  15.5938  15.7959
    15.8875  15.9954  16.1221  16.2349  16.3820  16.6176  16.6785  16.9208
    17.0810  17.2206  17.4091  17.4581  17.5338  17.7436  17.8934  18.1018
    18.2012  18.3098  18.3465  18.4129  18.4786  18.6079  18.7443  18.8118
    19.0574  19.0714  19.1143  19.1803  19.2400  19.5275  19.6003  20.7221
    20.9282  21.4703  22.1140

     occupation numbers 
     1.0000   1.0000   1.0000   1.0000   1.0000   1.0000   1.0000   1.0000
     1.0000   1.0000   1.0000   1.0000   1.0000   1.0000   1.0000   1.0000
     1.0000   1.0000   1.0000   1.0000   1.0000   1.0000   1.0000   1.0000
     1.0000   1.0000   1.0000   1.0000   1.0000   1.0000   1.0000   1.0000
     1.0000   1.0000   1.0000   1.0000   1.0000   1.0000   1.0000   1.0000
     1.0000   1.0000   1.0000   1.0000   1.0000   1.0000   1.0000   1.0000
     1.0000   1.0000   1.0000   1.0000   1.0000   1.0000   1.0000   1.0000
     1.0000   1.0000   1.0000   1.0000   1.0000   1.0000   1.0001   1.0081
     1.0349   1.0803   1.0822   1.0316   0.8880   0.4295   0.0932   0.0319
     0.0001   0.0001   0.0000   0.0000   0.0000   0.0000   0.0000   0.0000
     0.0000   0.0000   0.0000

          k = 0.0000 0.5754-0.8220 ( 12142 PWs)   bands (ev):

   -68.8245 -68.8192 -68.6401 -68.6366 -68.4764 -68.4712 -68.1948 -68.1918
   -35.6212 -35.5445 -35.0102 -34.9613 -34.8295 -34.7989 -34.7798 -34.7724
   -34.7445 -34.6567 -34.6221 -34.6198 -34.6048 -34.5770 -34.4859 -34.4850
   -34.4835 -34.3849 -34.3445 -34.3372 -34.1659 -34.1631 -34.1569 -34.1425
     0.9939   2.3459   9.6272   9.8325  10.0730  10.4983  10.7953  12.9009
    14.2663  14.4888  14.6706  14.8278  15.3144  15.6672  15.7144  15.7291
    15.8184  16.0444  16.0910  16.2655  16.3910  16.5774  16.7020  16.7604
    17.2572  17.3633  17.4118  17.5412  17.7511  17.8032  17.8619  17.9777
    18.1665  18.2609  18.3288  18.3675  18.4366  18.5545  18.8079  18.8203
    19.0018  19.0511  19.1294  19.1993  19.2296  19.3995  19.9361  20.2454
    20.6685  21.6171  21.8500

     occupation numbers 
     1.0000   1.0000   1.0000   1.0000   1.0000   1.0000   1.0000   1.0000
     1.0000   1.0000   1.0000   1.0000   1.0000   1.0000   1.0000   1.0000
     1.0000   1.0000   1.0000   1.0000   1.0000   1.0000   1.0000   1.0000
     1.0000   1.0000   1.0000   1.0000   1.0000   1.0000   1.0000   1.0000
     1.0000   1.0000   1.0000   1.0000   1.0000   1.0000   1.0000   1.0000
     1.0000   1.0000   1.0000   1.0000   1.0000   1.0000   1.0000   1.0000
     1.0000   1.0000   1.0000   1.0000   1.0000   1.0000   1.0000   1.0000
     1.0000   1.0000   1.0000   1.0000   1.0000   1.0000   1.0000   1.0006
     1.0224   1.0619   1.0832   1.0751   0.9911   0.6267   0.0342   0.0274
     0.0005   0.0001   0.0000   0.0000   0.0000   0.0000   0.0000   0.0000
     0.0000   0.0000   0.0000

          k = 0.0000 0.7672 0.0000 ( 12168 PWs)   bands (ev):

   -68.8249 -68.8192 -68.6411 -68.6371 -68.4755 -68.4705 -68.1948 -68.1915
   -35.6084 -35.5468 -34.9918 -34.9662 -34.8374 -34.7591 -34.7582 -34.7560
   -34.7536 -34.7391 -34.6746 -34.5926 -34.5404 -34.5309 -34.5275 -34.5212
   -34.4859 -34.3855 -34.3506 -34.3252 -34.1761 -34.1693 -34.1588 -34.1363
     0.7659   2.1018   9.7053   9.9075  10.2681  11.1561  12.2367  13.1889
    13.6483  14.2763  14.8532  15.0941  15.1177  15.2921  15.3706  15.7504
    15.8528  15.8998  15.9973  16.1545  16.2295  16.3320  16.4451  16.8238
    16.9341  17.1381  17.3857  17.4379  17.5678  17.7902  17.8275  17.8894
    18.0730  18.2431  18.2868  18.3185  18.4077  18.4987  18.5762  18.7078
    18.9124  18.9268  18.9562  19.0360  19.4691  19.8887  19.9571  20.1906
    21.0339  22.2135  22.6901

     occupation numbers 
     1.0000   1.0000   1.0000   1.0000   1.0000   1.0000   1.0000   1.0000
     1.0000   1.0000   1.0000   1.0000   1.0000   1.0000   1.0000   1.0000
     1.0000   1.0000   1.0000   1.0000   1.0000   1.0000   1.0000   1.0000
     1.0000   1.0000   1.0000   1.0000   1.0000   1.0000   1.0000   1.0000
     1.0000   1.0000   1.0000   1.0000   1.0000   1.0000   1.0000   1.0000
     1.0000   1.0000   1.0000   1.0000   1.0000   1.0000   1.0000   1.0000
     1.0000   1.0000   1.0000   1.0000   1.0000   1.0000   1.0000   1.0000
     1.0000   1.0000   1.0000   1.0000   1.0000   1.0000   1.0000   1.0001
     1.0048   1.0536   1.0730   1.0821   1.0388   0.8260   0.5450   0.1524
     0.0043   0.0031   0.0015   0.0002   0.0000   0.0000   0.0000   0.0000
     0.0000   0.0000   0.0000

          k = 0.0000 0.7672 0.2055 ( 12170 PWs)   bands (ev):

   -68.8247 -68.8192 -68.6410 -68.6372 -68.4756 -68.4706 -68.1948 -68.1916
   -35.6115 -35.5462 -34.9947 -34.9634 -34.8327 -34.7915 -34.7569 -34.7532
   -34.7472 -34.7214 -34.6742 -34.5993 -34.5454 -34.5359 -34.5182 -34.5146
   -34.4847 -34.3860 -34.3498 -34.3266 -34.1750 -34.1684 -34.1587 -34.1361
     0.8136   2.1540   9.6849   9.8716  10.2909  10.9405  11.9172  13.1232
    13.7307  14.4002  14.7658  15.1692  15.1698  15.2416  15.2717  15.7795
    15.8591  15.9357  16.0062  16.3339  16.3590  16.5259  16.5971  16.8328
    16.9302  16.9902  17.1001  17.3656  17.6627  17.8069  17.8357  18.0485
    18.1377  18.2697  18.2758  18.3284  18.4992  18.5579  18.5826  18.7285
    18.8315  18.9081  18.9314  19.1758  19.3746  19.8564  19.9234  20.4603
    20.9554  22.2145  22.3214

     occupation numbers 
     1.0000   1.0000   1.0000   1.0000   1.0000   1.0000   1.0000   1.0000
     1.0000   1.0000   1.0000   1.0000   1.0000   1.0000   1.0000   1.0000
     1.0000   1.0000   1.0000   1.0000   1.0000   1.0000   1.0000   1.0000
     1.0000   1.0000   1.0000   1.0000   1.0000   1.0000   1.0000   1.0000
     1.0000   1.0000   1.0000   1.0000   1.0000   1.0000   1.0000   1.0000
     1.0000   1.0000   1.0000   1.0000   1.0000   1.0000   1.0000   1.0000
     1.0000   1.0000   1.0000   1.0000   1.0000   1.0000   1.0000   1.0000
     1.0000   1.0000   1.0000   1.0000   1.0000   1.0000   1.0000   1.0030
     1.0147   1.0659   1.0686   1.0832   0.8244   0.6138   0.5212   0.1162
     0.0224   0.0047   0.0028   0.0000   0.0000   0.0000   0.0000   0.0000
     0.0000   0.0000   0.0000

          k = 0.0000 0.7672 0.4110 ( 12141 PWs)   bands (ev):

   -68.8243 -68.8192 -68.6406 -68.6373 -68.4758 -68.4708 -68.1948 -68.1919
   -35.6189 -35.5449 -34.9999 -34.9587 -34.8204 -34.8181 -34.7650 -34.7629
   -34.7471 -34.6840 -34.6727 -34.6107 -34.5581 -34.5515 -34.5013 -34.4991
   -34.4813 -34.3872 -34.3481 -34.3300 -34.1722 -34.1664 -34.1582 -34.1357
     0.9328   2.2859   9.6362   9.7933  10.3320  10.4463  11.2737  12.9907
    13.9259  14.5737  14.6954  14.9894  15.2258  15.2968  15.4645  15.8282
    15.8924  15.9805  16.0280  16.4416  16.5817  16.7249  16.8063  16.9232
    17.0298  17.0766  17.1336  17.4176  17.4194  17.7702  17.7883  18.1818
    18.2442  18.2476  18.3200  18.3424  18.5232  18.6126  18.6519  18.6621
    18.9222  18.9931  19.1312  19.1954  19.2695  19.7410  19.7936  20.6912
    20.8790  21.3057  22.5807

     occupation numbers 
     1.0000   1.0000   1.0000   1.0000   1.0000   1.0000   1.0000   1.0000
     1.0000   1.0000   1.0000   1.0000   1.0000   1.0000   1.0000   1.0000
     1.0000   1.0000   1.0000   1.0000   1.0000   1.0000   1.0000   1.0000
     1.0000   1.0000   1.0000   1.0000   1.0000   1.0000   1.0000   1.0000
     1.0000   1.0000   1.0000   1.0000   1.0000   1.0000   1.0000   1.0000
     1.0000   1.0000   1.0000   1.0000   1.0000   1.0000   1.0000   1.0000
     1.0000   1.0000   1.0000   1.0000   1.0000   1.0000   1.0000   1.0000
     1.0000   1.0000   1.0000   1.0000   1.0000   1.0000   1.0000   1.0275
     1.0541   1.0557   1.0823   1.0828   0.7422   0.4130   0.2871   0.2585
     0.0035   0.0006   0.0000   0.0000   0.0000   0.0000   0.0000   0.0000
     0.0000   0.0000   0.0000

          k = 0.0000 0.7672 0.6165 ( 12146 PWs)   bands (ev):

   -68.8239 -68.8192 -68.6403 -68.6374 -68.4759 -68.4711 -68.1948 -68.1921
   -35.6262 -35.5435 -35.0039 -34.9554 -34.8356 -34.8059 -34.7770 -34.7735
   -34.7420 -34.6703 -34.6479 -34.6193 -34.5747 -34.5716 -34.4896 -34.4852
   -34.4764 -34.3883 -34.3468 -34.3337 -34.1693 -34.1644 -34.1577 -34.1353
     1.0586   2.4274   9.5884   9.7223   9.9666  10.3730  10.7212  12.8827
    14.1971  14.4161  14.8600  14.9991  15.2183  15.3825  15.6678  15.7635
    15.9462  16.0804  16.2204  16.2576  16.5742  16.7074  16.7352  16.9323
    17.1506  17.3617  17.5271  17.6398  17.7158  17.7450  17.8569  18.1620
    18.1703  18.2401  18.2828  18.4163  18.4330  18.5687  18.7829  18.8096
    19.0311  19.1112  19.1613  19.2615  19.2811  19.4813  19.4926  20.1922
    20.4700  21.2873  22.0469

     occupation numbers 
     1.0000   1.0000   1.0000   1.0000   1.0000   1.0000   1.0000   1.0000
     1.0000   1.0000   1.0000   1.0000   1.0000   1.0000   1.0000   1.0000
     1.0000   1.0000   1.0000   1.0000   1.0000   1.0000   1.0000   1.0000
     1.0000   1.0000   1.0000   1.0000   1.0000   1.0000   1.0000   1.0000
     1.0000   1.0000   1.0000   1.0000   1.0000   1.0000   1.0000   1.0000
     1.0000   1.0000   1.0000   1.0000   1.0000   1.0000   1.0000   1.0000
     1.0000   1.0000   1.0000   1.0000   1.0000   1.0000   1.0000   1.0000
     1.0000   1.0000   1.0000   1.0000   1.0000   1.0000   1.0000   1.0211
     1.0236   1.0522   1.0715   1.0266   0.9980   0.5731   0.0518   0.0331
     0.0002   0.0000   0.0000   0.0000   0.0000   0.0000   0.0000   0.0000
     0.0000   0.0000   0.0000

          k = 0.0000 0.7672-0.8220 ( 12162 PWs)   bands (ev):

   -68.8238 -68.8192 -68.6401 -68.6374 -68.4760 -68.4712 -68.1948 -68.1922
   -35.6292 -35.5429 -35.0053 -34.9543 -34.8417 -34.7988 -34.7825 -34.7772
   -34.7404 -34.6690 -34.6245 -34.6224 -34.5938 -34.5775 -34.4862 -34.4799
   -34.4735 -34.3888 -34.3463 -34.3353 -34.1681 -34.1636 -34.1574 -34.1351
     1.1128   2.4892   9.5688   9.6951   9.7755  10.3853  10.5075  12.8431
    14.3582  14.3632  14.8170  15.0635  15.2373  15.4488  15.7348  15.7978
    15.9498  16.0284  16.1694  16.4016  16.5201  16.6573  16.7819  16.9623
    16.9994  17.5156  17.5400  17.6151  17.7371  18.0353  18.0381  18.1309
    18.2343  18.2398  18.4859  18.5114  18.5166  18.5324  18.8929  18.9036
    18.9973  19.0064  19.1173  19.2243  19.2463  19.2876  19.4787  19.7143
    20.2021  21.4141  21.8200

     occupation numbers 
     1.0000   1.0000   1.0000   1.0000   1.0000   1.0000   1.0000   1.0000
     1.0000   1.0000   1.0000   1.0000   1.0000   1.0000   1.0000   1.0000
     1.0000   1.0000   1.0000   1.0000   1.0000   1.0000   1.0000   1.0000
     1.0000   1.0000   1.0000   1.0000   1.0000   1.0000   1.0000   1.0000
     1.0000   1.0000   1.0000   1.0000   1.0000   1.0000   1.0000   1.0000
     1.0000   1.0000   1.0000   1.0000   1.0000   1.0000   1.0000   1.0000
     1.0000   1.0000   1.0000   1.0000   1.0000   1.0000   1.0000   1.0000
     1.0000   1.0000   1.0000   1.0000   1.0000   1.0022   1.0024   1.0132
     1.0495   1.0520   0.8663   0.7837   0.7655   0.7089   0.0066   0.0052
     0.0005   0.0004   0.0000   0.0000   0.0000   0.0000   0.0000   0.0000
     0.0000   0.0000   0.0000

          k = 0.2000 0.0000 0.0000 ( 12178 PWs)   bands (ev):

   -68.8281 -68.8203 -68.6376 -68.6374 -68.4748 -68.4721 -68.1943 -68.1903
   -35.5746 -35.5569 -35.0297 -34.9943 -34.8725 -34.8081 -34.7389 -34.7242
   -34.7146 -34.6553 -34.6279 -34.6276 -34.5903 -34.5685 -34.5084 -34.4892
   -34.4658 -34.4144 -34.3450 -34.3285 -34.1778 -34.1649 -34.1641 -34.1383
     0.3749   1.4158  10.1830  11.2422  11.7689  11.9892  12.6607  12.8190
    13.4173  13.5546  14.4897  14.5731  14.6156  14.7553  14.9141  14.9202
    15.4081  15.5747  15.7918  15.9953  15.9990  16.3198  16.7384  16.7546
    17.2990  17.6764  17.6804  17.7214  17.7657  18.0402  18.1050  18.1909
    18.2560  18.3598  18.5988  18.6864  18.7115  18.8234  18.9410  18.9760
    19.0469  19.0756  19.1119  19.2604  19.5064  19.5274  19.7147  19.7753
    21.2700  22.1078  23.0558

     occupation numbers 
     1.0000   1.0000   1.0000   1.0000   1.0000   1.0000   1.0000   1.0000
     1.0000   1.0000   1.0000   1.0000   1.0000   1.0000   1.0000   1.0000
     1.0000   1.0000   1.0000   1.0000   1.0000   1.0000   1.0000   1.0000
     1.0000   1.0000   1.0000   1.0000   1.0000   1.0000   1.0000   1.0000
     1.0000   1.0000   1.0000   1.0000   1.0000   1.0000   1.0000   1.0000
     1.0000   1.0000   1.0000   1.0000   1.0000   1.0000   1.0000   1.0000
     1.0000   1.0000   1.0000   1.0000   1.0000   1.0000   1.0000   1.0000
     1.0000   1.0000   1.0000   1.0000   1.0000   1.0025   1.0086   1.0308
     1.0596   1.0786   0.4617   0.1976   0.1453   0.0260   0.0022   0.0009
     0.0001   0.0001   0.0000   0.0000   0.0000   0.0000   0.0000   0.0000
     0.0000   0.0000   0.0000

          k = 0.2000 0.0000 0.2055 ( 12166 PWs)   bands (ev):

   -68.8278 -68.8202 -68.6384 -68.6365 -68.4752 -68.4720 -68.1943 -68.1904
   -35.5767 -35.5565 -35.0287 -34.9939 -34.8652 -34.8055 -34.7415 -34.7266
   -34.7168 -34.6549 -34.6277 -34.6260 -34.5932 -34.5723 -34.5103 -34.4889
   -34.4680 -34.4091 -34.3442 -34.3293 -34.1784 -34.1645 -34.1642 -34.1384
     0.4236   1.4640  10.1754  11.1130  11.7339  11.7458  12.6203  12.7316
    13.3013  13.6445  14.5662  14.6593  14.7169  14.8604  14.9993  15.0705
    15.4493  15.6047  15.7990  16.0024  16.0136  16.3319  16.7039  16.7076
    17.2537  17.3218  17.6996  17.8271  17.8625  17.9311  18.1430  18.1946
    18.2911  18.3449  18.6164  18.6224  18.6596  18.8500  18.9037  18.9713
    19.0038  19.0086  19.0879  19.2310  19.4919  19.5361  19.7122  19.7511
    21.5058  22.0113  22.8114

     occupation numbers 
     1.0000   1.0000   1.0000   1.0000   1.0000   1.0000   1.0000   1.0000
     1.0000   1.0000   1.0000   1.0000   1.0000   1.0000   1.0000   1.0000
     1.0000   1.0000   1.0000   1.0000   1.0000   1.0000   1.0000   1.0000
     1.0000   1.0000   1.0000   1.0000   1.0000   1.0000   1.0000   1.0000
     1.0000   1.0000   1.0000   1.0000   1.0000   1.0000   1.0000   1.0000
     1.0000   1.0000   1.0000   1.0000   1.0000   1.0000   1.0000   1.0000
     1.0000   1.0000   1.0000   1.0000   1.0000   1.0000   1.0000   1.0000
     1.0000   1.0000   1.0000   1.0000   1.0000   1.0002   1.0160   1.0323
     1.0746   1.0825   0.4001   0.3796   0.2656   0.0158   0.0052   0.0011
     0.0005   0.0004   0.0000   0.0000   0.0000   0.0000   0.0000   0.0000
     0.0000   0.0000   0.0000

          k = 0.2000 0.0000 0.4110 ( 12164 PWs)   bands (ev):

   -68.8272 -68.8201 -68.6390 -68.6356 -68.4761 -68.4719 -68.1944 -68.1906
   -35.5817 -35.5555 -35.0261 -34.9928 -34.8452 -34.7992 -34.7494 -34.7313
   -34.7229 -34.6540 -34.6272 -34.6224 -34.6010 -34.5811 -34.5146 -34.4885
   -34.4725 -34.3968 -34.3426 -34.3319 -34.1795 -34.1655 -34.1625 -34.1387
     0.5454   1.5847  10.1466  10.7025  11.1830  11.6530  12.5535  12.7926
    13.0940  13.9371  14.6664  14.9027  14.9119  15.1015  15.2374  15.4067
    15.5441  15.6810  15.8213  16.0050  16.0511  16.3576  16.5321  16.5324
    16.9519  17.2874  17.5756  17.6486  17.7277  18.0340  18.0854  18.1659
    18.2481  18.3504  18.4577  18.4911  18.5567  18.6992  18.8109  18.9299
    18.9636  19.0058  19.0983  19.1177  19.5607  19.5731  19.6720  19.8311
    21.7952  22.0736  22.3504

     occupation numbers 
     1.0000   1.0000   1.0000   1.0000   1.0000   1.0000   1.0000   1.0000
     1.0000   1.0000   1.0000   1.0000   1.0000   1.0000   1.0000   1.0000
     1.0000   1.0000   1.0000   1.0000   1.0000   1.0000   1.0000   1.0000
     1.0000   1.0000   1.0000   1.0000   1.0000   1.0000   1.0000   1.0000
     1.0000   1.0000   1.0000   1.0000   1.0000   1.0000   1.0000   1.0000
     1.0000   1.0000   1.0000   1.0000   1.0000   1.0000   1.0000   1.0000
     1.0000   1.0000   1.0000   1.0000   1.0000   1.0000   1.0000   1.0000
     1.0000   1.0000   1.0000   1.0000   1.0000   1.0022   1.0061   1.0223
     1.0560   1.0814   0.9440   0.8504   0.6184   0.1695   0.0324   0.0029
     0.0013   0.0004   0.0000   0.0000   0.0000   0.0000   0.0000   0.0000
     0.0000   0.0000   0.0000

          k = 0.2000 0.0000 0.6165 ( 12164 PWs)   bands (ev):

   -68.8267 -68.8200 -68.6394 -68.6349 -68.4769 -68.4718 -68.1944 -68.1908
   -35.5867 -35.5546 -35.0234 -34.9917 -34.8191 -34.7929 -34.7597 -34.7399
   -34.7270 -34.6531 -34.6268 -34.6190 -34.6111 -34.5887 -34.5186 -34.4883
   -34.4764 -34.3843 -34.3416 -34.3357 -34.1802 -34.1666 -34.1609 -34.1391
     0.6739   1.7126  10.0786  10.2627  10.6868  11.5765  12.4055  12.9073
    13.3299  14.3219  14.6105  15.0973  15.2106  15.2366  15.5275  15.6323
    15.7138  15.8206  15.8552  15.9874  16.0501  16.2854  16.2931  16.4290
    16.6681  17.1348  17.3380  17.4539  17.8048  17.9320  17.9363  18.0751
    18.1898  18.3117  18.3286  18.4154  18.4576  18.5415  18.6522  18.7847
    18.8249  19.0063  19.0592  19.1383  19.5642  19.7170  19.8524  19.9030
    21.4001  22.0192  22.9765

     occupation numbers 
     1.0000   1.0000   1.0000   1.0000   1.0000   1.0000   1.0000   1.0000
     1.0000   1.0000   1.0000   1.0000   1.0000   1.0000   1.0000   1.0000
     1.0000   1.0000   1.0000   1.0000   1.0000   1.0000   1.0000   1.0000
     1.0000   1.0000   1.0000   1.0000   1.0000   1.0000   1.0000   1.0000
     1.0000   1.0000   1.0000   1.0000   1.0000   1.0000   1.0000   1.0000
     1.0000   1.0000   1.0000   1.0000   1.0000   1.0000   1.0000   1.0000
     1.0000   1.0000   1.0000   1.0000   1.0000   1.0000   1.0000   1.0000
     1.0000   1.0000   1.0000   1.0000   1.0000   1.0002   1.0002   1.0050
     1.0304   1.0808   1.0832   1.0279   0.9443   0.6753   0.2864   0.0504
     0.0253   0.0004   0.0001   0.0000   0.0000   0.0000   0.0000   0.0000
     0.0000   0.0000   0.0000

          k = 0.2000 0.0000-0.8220 ( 12150 PWs)   bands (ev):

   -68.8264 -68.8200 -68.6395 -68.6346 -68.4772 -68.4718 -68.1944 -68.1908
   -35.5887 -35.5542 -35.0223 -34.9912 -34.8026 -34.7914 -34.7654 -34.7475
   -34.7272 -34.6527 -34.6266 -34.6177 -34.6158 -34.5916 -34.5203 -34.4883
   -34.4779 -34.3787 -34.3413 -34.3379 -34.1805 -34.1670 -34.1603 -34.1392
     0.7293   1.7679  10.0277  10.0717  10.5241  11.5460  12.3503  12.8548
    13.8550  14.1333  14.7674  15.1014  15.1885  15.3782  15.6314  15.7272
    15.7676  15.8261  16.0398  16.0406  16.0939  16.1103  16.1463  16.5043
    16.5226  16.9907  17.0752  17.5980  17.7630  17.8534  17.8631  17.9903
    18.1750  18.2562  18.3445  18.3994  18.4111  18.4625  18.5962  18.7029
    18.7716  18.9848  19.0831  19.1565  19.5629  19.7734  19.9310  19.9502
    21.1290  22.1402  23.1044

     occupation numbers 
     1.0000   1.0000   1.0000   1.0000   1.0000   1.0000   1.0000   1.0000
     1.0000   1.0000   1.0000   1.0000   1.0000   1.0000   1.0000   1.0000
     1.0000   1.0000   1.0000   1.0000   1.0000   1.0000   1.0000   1.0000
     1.0000   1.0000   1.0000   1.0000   1.0000   1.0000   1.0000   1.0000
     1.0000   1.0000   1.0000   1.0000   1.0000   1.0000   1.0000   1.0000
     1.0000   1.0000   1.0000   1.0000   1.0000   1.0000   1.0000   1.0000
     1.0000   1.0000   1.0000   1.0000   1.0000   1.0000   1.0000   1.0000
     1.0000   1.0000   1.0000   1.0000   1.0000   1.0000   1.0000   1.0008
     1.0252   1.0597   1.0825   1.0491   1.0342   0.9319   0.4712   0.1620
     0.0620   0.0008   0.0000   0.0000   0.0000   0.0000   0.0000   0.0000
     0.0000   0.0000   0.0000

          k = 0.2000 0.1918 0.0000 ( 12161 PWs)   bands (ev):

[...]
   -33.3760 -33.3391 -33.1516 -33.1367 -33.0803 -33.0598 -32.6744 -32.6470
   -32.6208 -32.6124 -32.5959 -32.5892 -32.5434 -32.5270 -32.4953 -32.4813
   -32.4551 -32.4447 -32.0427 -32.0370 -32.0192 -32.0101 -32.0015 -31.9973
     2.6901   2.9461  11.7136  11.7781  12.3158  13.0993  13.7394  13.9303
    15.6537  15.9644  16.4603  16.8171  17.1315  17.2832  17.4112  17.4206
    17.6575  17.6692  17.7947  17.8642  18.0591  18.1190  18.4977  18.8454
    18.9044  19.0988  19.3529  19.5447  19.7078  19.7383  19.9053  19.9979
    20.0649  20.1586  20.4302  20.4366  20.5051  20.5993  20.7923  21.0214
    21.0507  21.3091  21.3669  21.5249  21.5360  21.7541  21.8774  22.0229
    24.2463  24.9564  25.6733

     occupation numbers 
     1.0000   1.0000   1.0000   1.0000   1.0000   1.0000   1.0000   1.0000
     1.0000   1.0000   1.0000   1.0000   1.0000   1.0000   1.0000   1.0000
     1.0000   1.0000   1.0000   1.0000   1.0000   1.0000   1.0000   1.0000
     1.0000   1.0000   1.0000   1.0000   1.0000   1.0000   1.0000   1.0000
     1.0000   1.0000   1.0000   1.0000   1.0000   1.0000   1.0000   1.0000
     1.0000   1.0000   1.0000   1.0000   1.0000   1.0000   1.0000   1.0000
     1.0000   1.0000   1.0000   1.0000   1.0000   1.0000   1.0000   1.0000
     1.0000   1.0000   1.0000   1.0000   1.0000   1.0000   1.0000   1.0000
     1.0000   1.0003   1.0413   1.0442   1.0747   1.0629   0.5364   0.0343
     0.0202   0.0000   0.0000   0.0000   0.0000   0.0000   0.0000   0.0000
     0.0000   0.0000   0.0000

          k = 0.3699 0.8247 0.2268 ( 11078 PWs)   bands (ev):

   -66.6767 -66.6727 -66.6484 -66.6480 -66.6089 -66.6056 -65.9448 -65.9446
   -33.3965 -33.3577 -33.1461 -33.1173 -33.0663 -33.0540 -32.6801 -32.6525
   -32.6352 -32.6286 -32.6265 -32.6061 -32.5232 -32.5103 -32.4910 -32.4667
   -32.4441 -32.4405 -32.0402 -32.0363 -32.0155 -32.0073 -32.0009 -31.9960
     2.7883   3.0460  11.6561  11.7350  12.2426  12.9940  13.3773  13.5360
    15.7309  16.0030  16.5687  16.8764  17.2670  17.3675  17.4680  17.5565
    17.5875  17.7354  17.9474  17.9739  18.1079  18.1711  18.4014  18.6766
    18.8243  18.9660  19.3470  19.5358  19.5782  19.7049  19.8152  19.8808
    20.0426  20.1651  20.5069  20.5904  20.6288  20.7346  20.8854  20.9920
    21.1409  21.2401  21.3762  21.4742  21.5322  21.8187  22.2006  22.4539
    24.3019  25.0166  25.7455

     occupation numbers 
     1.0000   1.0000   1.0000   1.0000   1.0000   1.0000   1.0000   1.0000
     1.0000   1.0000   1.0000   1.0000   1.0000   1.0000   1.0000   1.0000
     1.0000   1.0000   1.0000   1.0000   1.0000   1.0000   1.0000   1.0000
     1.0000   1.0000   1.0000   1.0000   1.0000   1.0000   1.0000   1.0000
     1.0000   1.0000   1.0000   1.0000   1.0000   1.0000   1.0000   1.0000
     1.0000   1.0000   1.0000   1.0000   1.0000   1.0000   1.0000   1.0000
     1.0000   1.0000   1.0000   1.0000   1.0000   1.0000   1.0000   1.0000
     1.0000   1.0000   1.0000   1.0000   1.0000   1.0000   1.0000   1.0000
     1.0000   1.0003   1.0754   1.0697   1.0285   0.7508   0.2333   0.0559
     0.0031   0.0002   0.0000   0.0000   0.0000   0.0000   0.0000   0.0000
     0.0000   0.0000   0.0000

          k = 0.3699 0.8247 0.4536 ( 11104 PWs)   bands (ev):

   -66.6740 -66.6711 -66.6482 -66.6478 -66.6106 -66.6082 -65.9448 -65.9447
   -33.4369 -33.3936 -33.1371 -33.0924 -33.0331 -33.0311 -32.6935 -32.6729
   -32.6677 -32.6606 -32.6517 -32.6395 -32.5019 -32.4868 -32.4832 -32.4541
   -32.4203 -32.4184 -32.0342 -32.0322 -32.0079 -32.0020 -31.9989 -31.9931
     3.0425   3.3057  11.5220  11.6273  12.0604  12.4361  12.6491  12.9283
    15.9349  16.0745  16.8208  16.9949  17.3932  17.4281  17.6037  17.7667
    17.8641  17.9695  18.1145  18.2044  18.2318  18.3581  18.4467  18.4803
    18.6914  18.7735  19.2814  19.3409  19.4559  19.5460  19.5851  19.7061
    20.1868  20.3343  20.6467  20.7063  20.7776  20.8591  21.0049  21.0577
    21.2395  21.2760  21.3615  21.4070  21.6755  21.8651  22.7583  23.1249
    24.2559  24.7059  24.8927

     occupation numbers 
     1.0000   1.0000   1.0000   1.0000   1.0000   1.0000   1.0000   1.0000
     1.0000   1.0000   1.0000   1.0000   1.0000   1.0000   1.0000   1.0000
     1.0000   1.0000   1.0000   1.0000   1.0000   1.0000   1.0000   1.0000
     1.0000   1.0000   1.0000   1.0000   1.0000   1.0000   1.0000   1.0000
     1.0000   1.0000   1.0000   1.0000   1.0000   1.0000   1.0000   1.0000
     1.0000   1.0000   1.0000   1.0000   1.0000   1.0000   1.0000   1.0000
     1.0000   1.0000   1.0000   1.0000   1.0000   1.0000   1.0000   1.0000
     1.0000   1.0000   1.0000   1.0000   1.0000   1.0000   1.0000   1.0000
     1.0005   1.0112   0.9982   0.8457   0.5916   0.3067   0.0453   0.0178
     0.0003   0.0001   0.0000   0.0000   0.0000   0.0000   0.0000   0.0000
     0.0000   0.0000   0.0000

          k = 0.3699 0.8247 0.6805 ( 11117 PWs)   bands (ev):

   -66.6711 -66.6694 -66.6481 -66.6476 -66.6123 -66.6111 -65.9449 -65.9449
   -33.4698 -33.4225 -33.1312 -33.0825 -33.0023 -33.0010 -32.7055 -32.7008
   -32.6938 -32.6810 -32.6673 -32.6636 -32.4912 -32.4832 -32.4655 -32.4512
   -32.3974 -32.3966 -32.0280 -32.0249 -32.0025 -31.9989 -31.9954 -31.9906
     3.3265   3.5976  11.3833  11.4720  11.6773  11.7333  12.0549  12.7387
    16.1179  16.1745  17.0530  17.0890  17.3813  17.3992  17.6543  17.8854
    18.1109  18.2572  18.3031  18.4228  18.5382  18.5587  18.6116  18.6773
    18.7390  18.8713  19.0552  19.2002  19.2379  19.3240  19.4522  19.6995
    20.3719  20.5320  20.6199  20.7663  20.7993  20.9441  20.9953  21.0727
    21.1702  21.3017  21.4352  21.4967  21.9056  21.9549  23.0195  23.0330
    23.4843  23.7652  24.8982

     occupation numbers 
     1.0000   1.0000   1.0000   1.0000   1.0000   1.0000   1.0000   1.0000
     1.0000   1.0000   1.0000   1.0000   1.0000   1.0000   1.0000   1.0000
     1.0000   1.0000   1.0000   1.0000   1.0000   1.0000   1.0000   1.0000
     1.0000   1.0000   1.0000   1.0000   1.0000   1.0000   1.0000   1.0000
     1.0000   1.0000   1.0000   1.0000   1.0000   1.0000   1.0000   1.0000
     1.0000   1.0000   1.0000   1.0000   1.0000   1.0000   1.0000   1.0000
     1.0000   1.0000   1.0000   1.0000   1.0000   1.0000   1.0000   1.0000
     1.0000   1.0000   1.0000   1.0000   1.0000   1.0000   1.0000   1.0000
     1.0199   1.0820   1.0409   0.6341   0.5103   0.1133   0.0530   0.0133
     0.0015   0.0000   0.0000   0.0000   0.0000   0.0000   0.0000   0.0000
     0.0000   0.0000   0.0000

          k = 0.3699 0.8247-0.9073 ( 11124 PWs)   bands (ev):

   -66.6698 -66.6686 -66.6480 -66.6475 -66.6130 -66.6123 -65.9449 -65.9449
   -33.4820 -33.4332 -33.1292 -33.0800 -32.9895 -32.9888 -32.7119 -32.7088
   -32.7047 -32.6885 -32.6770 -32.6686 -32.4881 -32.4822 -32.4593 -32.4505
   -32.3886 -32.3885 -32.0240 -32.0224 -32.0016 -31.9960 -31.9956 -31.9892
     3.4552   3.7307  11.2530  11.2906  11.4770  11.5371  11.9566  12.6734
    16.1283  16.2849  17.1249  17.1308  17.3717  17.3907  17.6327  17.8296
    18.3019  18.3258  18.5031  18.5825  18.5831  18.6547  18.6686  18.8368
    18.8466  18.9660  19.0371  19.0424  19.1694  19.2695  19.4332  19.6951
    20.4867  20.5530  20.6552  20.7288  20.8179  20.9337  21.0087  21.0120
    21.0716  21.3267  21.6328  21.6371  21.8625  21.8941  22.5774  22.8991
    23.1552  23.7134  24.9969

     occupation numbers 
     1.0000   1.0000   1.0000   1.0000   1.0000   1.0000   1.0000   1.0000
     1.0000   1.0000   1.0000   1.0000   1.0000   1.0000   1.0000   1.0000
     1.0000   1.0000   1.0000   1.0000   1.0000   1.0000   1.0000   1.0000
     1.0000   1.0000   1.0000   1.0000   1.0000   1.0000   1.0000   1.0000
     1.0000   1.0000   1.0000   1.0000   1.0000   1.0000   1.0000   1.0000
     1.0000   1.0000   1.0000   1.0000   1.0000   1.0000   1.0000   1.0000
     1.0000   1.0000   1.0000   1.0000   1.0000   1.0000   1.0000   1.0000
     1.0000   1.0000   1.0000   1.0000   1.0000   1.0000   1.0000   1.0000
     1.0673   1.0831   0.9812   0.7712   0.4428   0.1303   0.0426   0.0403
     0.0136   0.0000   0.0000   0.0000   0.0000   0.0000   0.0000   0.0000
     0.0000   0.0000   0.0000

     the Fermi energy is    20.8300 ev

!    total energy              =   -2674.32916356 Ry
     Harris-Foulkes estimate   =   -2674.32916356 Ry
     estimated scf accuracy    <          4.5E-12 Ry

     The total energy is the sum of the following terms:

     one-electron contribution =    -824.28261508 Ry
     hartree contribution      =     516.15756202 Ry
     xc contribution           =    -289.92014168 Ry
     ewald contribution        =   -1467.03598865 Ry
     one-center paw contrib.   =    -609.24877918 Ry
     smearing contrib. (-TS)   =       0.00079901 Ry

     convergence has been achieved in  19 iterations

     Forces acting on atoms (Ry/au):

     atom    1 type  1   force =     0.00000000    0.00000000    0.00002578
     atom    2 type  1   force =     0.00000000    0.00000000   -0.00002578
     atom    3 type  1   force =     0.00000000    0.00000000   -0.00001492
     atom    4 type  1   force =     0.00000000    0.00000000    0.00001492
     atom    5 type  1   force =     0.00000000    0.00000000    0.00000000
     atom    6 type  1   force =    -0.00000000    0.00000000    0.00000000
     atom    7 type  1   force =     0.00000000    0.00000000    0.00000000
     atom    8 type  1   force =    -0.00000000    0.00000000    0.00000000
     atom    9 type  2   force =     0.00000000    0.00000000    0.00001753
     atom   10 type  2   force =     0.00000000    0.00000000   -0.00001753
     The non-local contrib.  to forces
     atom    1 type  1   force =     0.00000000    0.00000000   -0.08082874
     atom    2 type  1   force =     0.00000000    0.00000000    0.08082874
     atom    3 type  1   force =     0.00000000    0.00000000    0.02410379
     atom    4 type  1   force =     0.00000000    0.00000000   -0.02410379
     atom    5 type  1   force =     0.00000000    0.00000000    0.00000000
     atom    6 type  1   force =    -0.00000000    0.00000000    0.00000000
     atom    7 type  1   force =     0.00000000   -0.00000000    0.00000000
     atom    8 type  1   force =     0.00000000    0.00000000    0.00000000
     atom    9 type  2   force =     0.00000000    0.00000000    0.11828466
     atom   10 type  2   force =     0.00000000    0.00000000   -0.11828466
     The ionic contribution  to forces
     atom    1 type  1   force =     0.00000000   -0.00000000   -3.09491725
     atom    2 type  1   force =     0.00000000   -0.00000000    3.09491725
     atom    3 type  1   force =     0.00000000    0.00000000    4.18390723
     atom    4 type  1   force =     0.00000000    0.00000000   -4.18390723
     atom    5 type  1   force =    -0.00000000    0.00000000   -0.00000000
     atom    6 type  1   force =    -0.00000000    0.00000000   -0.00000000
     atom    7 type  1   force =     0.00000000   -0.00000000    0.00000000
     atom    8 type  1   force =    -0.00000000   -0.00000000    0.00000000
     atom    9 type  2   force =     0.00000000    0.00000000   -1.64919698
     atom   10 type  2   force =     0.00000000    0.00000000    1.64919698
     The local contribution  to forces
     atom    1 type  1   force =     0.00000000    0.00000000    3.17862418
     atom    2 type  1   force =     0.00000000    0.00000000   -3.17862418
     atom    3 type  1   force =     0.00000000    0.00000000   -4.20773416
     atom    4 type  1   force =     0.00000000    0.00000000    4.20773416
     atom    5 type  1   force =    -0.00000000    0.00000000    0.00000000
     atom    6 type  1   force =    -0.00000000    0.00000000    0.00000000
     atom    7 type  1   force =    -0.00000000    0.00000000    0.00000000
     atom    8 type  1   force =    -0.00000000    0.00000000    0.00000000
     atom    9 type  2   force =     0.00000000    0.00000000    1.53218272
     atom   10 type  2   force =     0.00000000    0.00000000   -1.53218272
     The core correction contribution to forces
     atom    1 type  1   force =    -0.00000000    0.00000000   -0.00285299
     atom    2 type  1   force =    -0.00000000   -0.00000000    0.00285299
     atom    3 type  1   force =    -0.00000000   -0.00000000   -0.00029169
     atom    4 type  1   force =    -0.00000000   -0.00000000    0.00029169
     atom    5 type  1   force =    -0.00000000   -0.00000000   -0.00000000
     atom    6 type  1   force =     0.00000000   -0.00000000   -0.00000000
     atom    7 type  1   force =    -0.00000000   -0.00000000    0.00000000
     atom    8 type  1   force =     0.00000000   -0.00000000   -0.00000000
     atom    9 type  2   force =    -0.00000000   -0.00000000   -0.00125291
     atom   10 type  2   force =    -0.00000000   -0.00000000    0.00125291
     The Hubbard contrib.    to forces
     atom    1 type  1   force =     0.00000000    0.00000000    0.00000000
     atom    2 type  1   force =     0.00000000    0.00000000    0.00000000
     atom    3 type  1   force =     0.00000000    0.00000000    0.00000000
     atom    4 type  1   force =     0.00000000    0.00000000    0.00000000
     atom    5 type  1   force =     0.00000000    0.00000000    0.00000000
     atom    6 type  1   force =     0.00000000    0.00000000    0.00000000
     atom    7 type  1   force =     0.00000000    0.00000000    0.00000000
     atom    8 type  1   force =     0.00000000    0.00000000    0.00000000
     atom    9 type  2   force =     0.00000000    0.00000000    0.00000000
     atom   10 type  2   force =     0.00000000    0.00000000    0.00000000
     The SCF correction term to forces
     atom    1 type  1   force =    -0.00000000    0.00000000    0.00000057
     atom    2 type  1   force =    -0.00000000    0.00000000   -0.00000057
     atom    3 type  1   force =     0.00000000   -0.00000000   -0.00000009
     atom    4 type  1   force =     0.00000000    0.00000000    0.00000009
     atom    5 type  1   force =    -0.00000000    0.00000000   -0.00000000
     atom    6 type  1   force =     0.00000000    0.00000000   -0.00000000
     atom    7 type  1   force =     0.00000000    0.00000000   -0.00000000
     atom    8 type  1   force =    -0.00000000   -0.00000000   -0.00000000
     atom    9 type  2   force =    -0.00000000   -0.00000000    0.00000005
     atom   10 type  2   force =     0.00000000   -0.00000000   -0.00000005

     Total force =     0.000049     Total SCF correction =     0.000001


     entering subroutine stress ...

          total   stress  (Ry/bohr**3)                   (kbar)     P=  300.98
   0.00204377   0.00000000   0.00000000        300.65      0.00      0.00
   0.00000000   0.00204791   0.00000000          0.00    301.26      0.00
   0.00000000   0.00000000   0.00204642          0.00      0.00    301.04

     kinetic stress (kbar)  88387.92      0.00      0.00
                                0.00  88440.10      0.00
                                0.00      0.00  88409.06

     local   stress (kbar)  73357.18      0.00      0.00
                                0.00  72592.41     -0.00
                                0.00     -0.00  74955.23

     nonloc. stress (kbar) -65038.94      0.00      0.00
                                0.00 -65037.87      0.00
                                0.00      0.00 -65002.17

     hartree stress (kbar)  41601.22     -0.00     -0.00
                               -0.00  41929.09      0.00
                               -0.00      0.00  40945.00

     exc-cor stress (kbar)  -3262.12      0.00     -0.00
                                0.00  -3261.19      0.00
                               -0.00      0.00  -3261.83

     corecor stress (kbar) -17019.66      0.00      0.00
                                0.00 -17022.40      0.00
                                0.00      0.00 -17021.23

     ewald   stress (kbar)-117724.95      0.00     -0.00
                                0.00-117338.88      0.00
                               -0.00      0.00-118723.03

     hubbard stress (kbar)      0.00      0.00      0.00
                                0.00      0.00      0.00
                                0.00      0.00      0.00

     london  stress (kbar)      0.00      0.00      0.00
                                0.00      0.00      0.00
                                0.00      0.00      0.00

     XDM     stress (kbar)      0.00      0.00      0.00
                                0.00      0.00      0.00
                                0.00      0.00      0.00

     dft-nl  stress (kbar)      0.00      0.00      0.00
                                0.00      0.00      0.00
                                0.00      0.00      0.00



     Writing output data file fe4n.save
 
     init_run     :     11.55s CPU     12.17s WALL (       2 calls)
     electrons    :   4491.19s CPU   4615.00s WALL (      20 calls)
     update_pot   :     29.18s CPU     29.35s WALL (      18 calls)
     forces       :     43.38s CPU     43.77s WALL (      20 calls)
     stress       :     95.12s CPU     95.89s WALL (      20 calls)

     Called by init_run:
     wfcinit      :      9.04s CPU      9.44s WALL (       2 calls)
     potinit      :      0.79s CPU      0.82s WALL (       2 calls)

     Called by electrons:
     c_bands      :   3975.57s CPU   4087.33s WALL (     306 calls)
     sum_band     :    469.06s CPU    480.14s WALL (     306 calls)
     v_of_rho     :      4.18s CPU      4.25s WALL (     321 calls)
     v_h          :      0.29s CPU      0.30s WALL (     321 calls)
     v_xc         :      4.37s CPU      4.45s WALL (     361 calls)
     newd         :     12.89s CPU     12.99s WALL (     321 calls)
     mix_rho      :      0.96s CPU      0.97s WALL (     306 calls)

     Called by c_bands:
     init_us_2    :     31.96s CPU     32.65s WALL (   50400 calls)
     cegterg      :   3826.24s CPU   3935.57s WALL (   22950 calls)

     Called by sum_band:
     sum_band:bec :      3.77s CPU      3.87s WALL (   24300 calls)
     addusdens    :     20.22s CPU     20.31s WALL (     306 calls)

     Called by *egterg:
     h_psi        :   1978.28s CPU   2024.71s WALL (   82441 calls)
     s_psi        :    117.63s CPU    119.70s WALL (   82441 calls)
     g_psi        :     14.41s CPU     14.70s WALL (   59341 calls)
     cdiaghg      :   1047.45s CPU   1097.08s WALL (   80566 calls)
     cegterg:over :    199.59s CPU    203.07s WALL (   59341 calls)
     cegterg:upda :    180.28s CPU    183.62s WALL (   59341 calls)
     cegterg:last :     87.78s CPU     88.85s WALL (   24434 calls)
     cdiaghg:chol :     65.23s CPU     66.75s WALL (   80566 calls)
     cdiaghg:inve :     35.36s CPU     36.21s WALL (   80566 calls)
     cdiaghg:para :    101.04s CPU    103.03s WALL (  161132 calls)

     Called by h_psi:
     h_psi:vloc   :   1710.42s CPU   1751.05s WALL (   82441 calls)
     h_psi:vnl    :    250.91s CPU    256.77s WALL (   82441 calls)
     add_vuspsi   :    111.59s CPU    114.20s WALL (   82441 calls)

     General routines
     calbec       :    213.50s CPU    218.78s WALL (  114241 calls)
     fft          :      4.44s CPU      4.54s WALL (    5594 calls)
     ffts         :      0.21s CPU      0.22s WALL (     627 calls)
     fftw         :   1853.87s CPU   1896.90s WALL (11647172 calls)
     interpolate  :      0.72s CPU      0.73s WALL (     627 calls)
     davcio       :      0.14s CPU      0.53s WALL (     150 calls)
 
     Parallel routines
     fft_scatter  :    775.93s CPU    799.69s WALL (11653393 calls)

     PAW routines
     PAW_pot      :     31.77s CPU     32.41s WALL (     339 calls)
     PAW_symme    :      0.08s CPU      0.08s WALL (     645 calls)
 
     PWSCF        :     1h18m CPU        1h20m WALL

 
   This run was terminated on:  14:46:42  14Nov2020            

=------------------------------------------------------------------------------=
   JOB DONE.
=------------------------------------------------------------------------------=
