
     Program PWSCF v.5.2.0 starts on 16Nov2020 at 17:57:50 

     This program is part of the open-source Quantum ESPRESSO suite
     for quantum simulation of materials; please cite
         "P. Giannozzi et al., J. Phys.:Condens. Matter 21 395502 (2009);
          URL http://www.quantum-espresso.org", 
     in publications or presentations arising from this work. More details at
     http://www.quantum-espresso.org/quote

     Parallel version (MPI), running on    24 processors
     R & G space division:  proc/nbgrp/npool/nimage =      24
     Reading input from X5P2/config.in

     Current dimensions of program PWSCF are:
     Max number of different atomic species (ntypx) = 10
     Max number of k-points (npk) =  40000
     Max angular momentum in pseudopotentials (lmaxx) =  3

     IMPORTANT: XC functional enforced from input :
     Exchange-correlation      = PBE ( 1  4  3  4 0 0)
     Any further DFT definition will be discarded
     Please, verify this is what you really want

               file Fe.pbe-spn-kjpaw_psl.0.2.1.UPF: wavefunction(s)  3D renormalized

     Subspace diagonalization in iterative solution of the eigenvalue problem:
     scalapack distributed-memory algorithm (size of sub-group:  3*  3 procs)

 
     Parallelization info
     --------------------
     sticks:   dense  smooth     PW     G-vecs:    dense   smooth      PW
     Min         288     164     45                14450     6222     905
     Max         290     165     46                14453     6247     906
     Sum        6937    3951   1097               346835   149683   21737
 


     bravais-lattice index     =            0
     lattice parameter (alat)  =      12.3840  a.u.
     unit-cell volume          =     669.2381 (a.u.)^3
     number of atoms/cell      =           10
     number of atomic types    =            2
     number of electrons       =       138.00
     number of Kohn-Sham states=           83
     kinetic-energy cutoff     =     140.0000  Ry
     charge density cutoff     =     980.0000  Ry
     convergence threshold     =      2.0E-09
     mixing beta               =       0.4000
     number of iterations used =            8  plain     mixing
     Exchange-correlation      = PBE ( 1  4  3  4 0 0)
     nstep                     =           50


     celldm(1)=  12.383961  celldm(2)=   0.000000  celldm(3)=   0.000000
     celldm(4)=   0.000000  celldm(5)=   0.000000  celldm(6)=   0.000000

     crystal axes: (cart. coord. in units of alat)
               a(1) = (   1.000000   0.000000   0.000000 )  
               a(2) = (   0.000000   0.579278   0.000000 )  
               a(3) = (   0.000000   0.000000   0.608296 )  

     reciprocal axes: (cart. coord. in units 2 pi/alat)
               b(1) = (  1.000000  0.000000  0.000000 )  
               b(2) = (  0.000000  1.726286  0.000000 )  
               b(3) = (  0.000000  0.000000  1.643937 )  


     PseudoPot. # 1 for Fe read from file:
     pseudo/Fe.pbe-spn-kjpaw_psl.0.2.1.UPF
     MD5 check sum: e86618425769142926afa95317d90200
     Pseudo is Projector augmented-wave + core cor, Zval = 16.0
     Generated using "atomic" code by A. Dal Corso  v.5.0.99 svn rev. 10869
     Shape of augmentation charge: PSQ
     Using radial grid of 1191 points,  6 beta functions with: 
                l(1) =   0
                l(2) =   0
                l(3) =   1
                l(4) =   1
                l(5) =   2
                l(6) =   2
     Q(r) pseudized with 0 coefficients 


     PseudoPot. # 2 for  N read from file:
     pseudo/N.pbe-n-radius_5.UPF
     MD5 check sum: 16739722b17309cd8fe442a2ace49922
     Pseudo is Ultrasoft + core correction, Zval =  5.0
     Generated using "atomic" code by A. Dal Corso  v.5.1
     Using radial grid of 1085 points,  4 beta functions with: 
                l(1) =   0
                l(2) =   0
                l(3) =   1
                l(4) =   1
     Q(r) pseudized with 0 coefficients 


     atomic species   valence    mass     pseudopotential
        Fe            16.00    55.84500     Fe( 1.00)
        N              5.00    14.00650      N( 1.00)

      4 Sym. Ops., with inversion, found
          (note:  4 additional sym.ops. were found but ignored
           their fractional translations are incommensurate with FFT grid)

                                    s                        frac. trans.

      isym =  1     identity                                     

 cryst.   s( 1) = (     1          0          0      )
                  (     0          1          0      )
                  (     0          0          1      )

 cart.    s( 1) = (  1.0000000  0.0000000  0.0000000 )
                  (  0.0000000  1.0000000  0.0000000 )
                  (  0.0000000  0.0000000  1.0000000 )


      isym =  2     180 deg rotation - cart. axis [0,1,0]        

 cryst.   s( 2) = (    -1          0          0      )
                  (     0          1          0      )
                  (     0          0         -1      )

 cart.    s( 2) = ( -1.0000000  0.0000000  0.0000000 )
                  (  0.0000000  1.0000000  0.0000000 )
                  (  0.0000000  0.0000000 -1.0000000 )


      isym =  3     inversion                                    

 cryst.   s( 3) = (    -1          0          0      )
                  (     0         -1          0      )
                  (     0          0         -1      )

 cart.    s( 3) = ( -1.0000000  0.0000000  0.0000000 )
                  (  0.0000000 -1.0000000  0.0000000 )
                  (  0.0000000  0.0000000 -1.0000000 )


      isym =  4     inv. 180 deg rotation - cart. axis [0,1,0]   

 cryst.   s( 4) = (     1          0          0      )
                  (     0         -1          0      )
                  (     0          0          1      )

 cart.    s( 4) = (  1.0000000  0.0000000  0.0000000 )
                  (  0.0000000 -1.0000000  0.0000000 )
                  (  0.0000000  0.0000000  1.0000000 )


     point group C_2h (2/m) 
     there are  4 classes
     the character table:

       E     C2    i     s_h  
A_g    1.00  1.00  1.00  1.00
B_g    1.00 -1.00  1.00 -1.00
A_u    1.00  1.00 -1.00 -1.00
B_u    1.00 -1.00 -1.00  1.00

     the symmetry operations in each class and the name of the first element:

     E        1
          identity                                               
     C2       2
          180 deg rotation - cart. axis [0,1,0]                  
     i        3
          inversion                                              
     s_h      4
          inv. 180 deg rotation - cart. axis [0,1,0]             

   Cartesian axes

     site n.     atom                  positions (alat units)
         1           Fe  tau(   1) = (   0.2500000   0.0000000   0.2456055  )
         2           Fe  tau(   2) = (   0.7500000   0.0000000   0.3626902  )
         3           Fe  tau(   3) = (   0.2500000   0.2896391   0.5497533  )
         4           Fe  tau(   4) = (   0.7500000   0.2896391   0.0585424  )
         5           Fe  tau(   5) = (   0.0000000   0.2896391   0.3041478  )
         6           Fe  tau(   6) = (   0.5000000   0.2896391   0.3041478  )
         7           Fe  tau(   7) = (   0.0000000   0.0000000   0.0000000  )
         8           Fe  tau(   8) = (   0.5000000   0.0000000   0.0000000  )
         9           N   tau(   9) = (   0.2500000   0.2896391   0.2456055  )
        10           N   tau(  10) = (   0.7500000   0.2896391   0.3626902  )

   Crystallographic axes

     site n.     atom                  positions (cryst. coord.)
         1           Fe  tau(   1) = (  0.2500000  0.0000000  0.4037600  )
         2           Fe  tau(   2) = (  0.7500000  0.0000000  0.5962400  )
         3           Fe  tau(   3) = (  0.2500000  0.5000000  0.9037600  )
         4           Fe  tau(   4) = (  0.7500000  0.5000000  0.0962400  )
         5           Fe  tau(   5) = (  0.0000000  0.5000000  0.5000000  )
         6           Fe  tau(   6) = (  0.5000000  0.5000000  0.5000000  )
         7           Fe  tau(   7) = (  0.0000000  0.0000000  0.0000000  )
         8           Fe  tau(   8) = (  0.5000000  0.0000000  0.0000000  )
         9           N   tau(   9) = (  0.2500000  0.5000000  0.4037600  )
        10           N   tau(  10) = (  0.7500000  0.5000000  0.5962400  )

     number of k points=   105  Marzari-Vanderbilt smearing, width (Ry)=  0.0147
                       cart. coord. in units 2pi/alat
        k(    1) = (   0.0000000   0.0000000   0.0000000), wk =   0.0055556
        k(    2) = (   0.0000000   0.0000000   0.2054922), wk =   0.0111111
        k(    3) = (   0.0000000   0.0000000   0.4109844), wk =   0.0111111
        k(    4) = (   0.0000000   0.0000000   0.6164765), wk =   0.0111111
        k(    5) = (   0.0000000   0.0000000  -0.8219687), wk =   0.0055556
        k(    6) = (   0.0000000   0.1918096   0.0000000), wk =   0.0111111
        k(    7) = (   0.0000000   0.1918096   0.2054922), wk =   0.0222222
        k(    8) = (   0.0000000   0.1918096   0.4109844), wk =   0.0222222
        k(    9) = (   0.0000000   0.1918096   0.6164765), wk =   0.0222222
        k(   10) = (   0.0000000   0.1918096  -0.8219687), wk =   0.0111111
        k(   11) = (   0.0000000   0.3836191   0.0000000), wk =   0.0111111
        k(   12) = (   0.0000000   0.3836191   0.2054922), wk =   0.0222222
        k(   13) = (   0.0000000   0.3836191   0.4109844), wk =   0.0222222
        k(   14) = (   0.0000000   0.3836191   0.6164765), wk =   0.0222222
        k(   15) = (   0.0000000   0.3836191  -0.8219687), wk =   0.0111111
        k(   16) = (   0.0000000   0.5754287   0.0000000), wk =   0.0111111
        k(   17) = (   0.0000000   0.5754287   0.2054922), wk =   0.0222222
        k(   18) = (   0.0000000   0.5754287   0.4109844), wk =   0.0222222
        k(   19) = (   0.0000000   0.5754287   0.6164765), wk =   0.0222222
        k(   20) = (   0.0000000   0.5754287  -0.8219687), wk =   0.0111111
        k(   21) = (   0.0000000   0.7672383   0.0000000), wk =   0.0111111
        k(   22) = (   0.0000000   0.7672383   0.2054922), wk =   0.0222222
        k(   23) = (   0.0000000   0.7672383   0.4109844), wk =   0.0222222
        k(   24) = (   0.0000000   0.7672383   0.6164765), wk =   0.0222222
        k(   25) = (   0.0000000   0.7672383  -0.8219687), wk =   0.0111111
        k(   26) = (   0.2000000   0.0000000   0.0000000), wk =   0.0111111
        k(   27) = (   0.2000000   0.0000000   0.2054922), wk =   0.0111111
        k(   28) = (   0.2000000   0.0000000   0.4109844), wk =   0.0111111
        k(   29) = (   0.2000000   0.0000000   0.6164765), wk =   0.0111111
        k(   30) = (   0.2000000   0.0000000  -0.8219687), wk =   0.0111111
        k(   31) = (   0.2000000   0.1918096   0.0000000), wk =   0.0222222
        k(   32) = (   0.2000000   0.1918096   0.2054922), wk =   0.0222222
        k(   33) = (   0.2000000   0.1918096   0.4109844), wk =   0.0222222
        k(   34) = (   0.2000000   0.1918096   0.6164765), wk =   0.0222222
        k(   35) = (   0.2000000   0.1918096  -0.8219687), wk =   0.0222222
        k(   36) = (   0.2000000   0.3836191   0.0000000), wk =   0.0222222
        k(   37) = (   0.2000000   0.3836191   0.2054922), wk =   0.0222222
        k(   38) = (   0.2000000   0.3836191   0.4109844), wk =   0.0222222
        k(   39) = (   0.2000000   0.3836191   0.6164765), wk =   0.0222222
        k(   40) = (   0.2000000   0.3836191  -0.8219687), wk =   0.0222222
        k(   41) = (   0.2000000   0.5754287   0.0000000), wk =   0.0222222
        k(   42) = (   0.2000000   0.5754287   0.2054922), wk =   0.0222222
        k(   43) = (   0.2000000   0.5754287   0.4109844), wk =   0.0222222
        k(   44) = (   0.2000000   0.5754287   0.6164765), wk =   0.0222222
        k(   45) = (   0.2000000   0.5754287  -0.8219687), wk =   0.0222222
        k(   46) = (   0.2000000   0.7672383   0.0000000), wk =   0.0222222
        k(   47) = (   0.2000000   0.7672383   0.2054922), wk =   0.0222222
        k(   48) = (   0.2000000   0.7672383   0.4109844), wk =   0.0222222
        k(   49) = (   0.2000000   0.7672383   0.6164765), wk =   0.0222222
        k(   50) = (   0.2000000   0.7672383  -0.8219687), wk =   0.0222222
        k(   51) = (   0.4000000   0.0000000   0.0000000), wk =   0.0111111
        k(   52) = (   0.4000000   0.0000000   0.2054922), wk =   0.0111111
        k(   53) = (   0.4000000   0.0000000   0.4109844), wk =   0.0111111
        k(   54) = (   0.4000000   0.0000000   0.6164765), wk =   0.0111111
        k(   55) = (   0.4000000   0.0000000  -0.8219687), wk =   0.0111111
        k(   56) = (   0.4000000   0.1918096   0.0000000), wk =   0.0222222
        k(   57) = (   0.4000000   0.1918096   0.2054922), wk =   0.0222222
        k(   58) = (   0.4000000   0.1918096   0.4109844), wk =   0.0222222
        k(   59) = (   0.4000000   0.1918096   0.6164765), wk =   0.0222222
        k(   60) = (   0.4000000   0.1918096  -0.8219687), wk =   0.0222222
        k(   61) = (   0.4000000   0.3836191   0.0000000), wk =   0.0222222
        k(   62) = (   0.4000000   0.3836191   0.2054922), wk =   0.0222222
        k(   63) = (   0.4000000   0.3836191   0.4109844), wk =   0.0222222
        k(   64) = (   0.4000000   0.3836191   0.6164765), wk =   0.0222222
        k(   65) = (   0.4000000   0.3836191  -0.8219687), wk =   0.0222222
        k(   66) = (   0.4000000   0.5754287   0.0000000), wk =   0.0222222
        k(   67) = (   0.4000000   0.5754287   0.2054922), wk =   0.0222222
        k(   68) = (   0.4000000   0.5754287   0.4109844), wk =   0.0222222
        k(   69) = (   0.4000000   0.5754287   0.6164765), wk =   0.0222222
        k(   70) = (   0.4000000   0.5754287  -0.8219687), wk =   0.0222222
        k(   71) = (   0.4000000   0.7672383   0.0000000), wk =   0.0222222
        k(   72) = (   0.4000000   0.7672383   0.2054922), wk =   0.0222222
        k(   73) = (   0.4000000   0.7672383   0.4109844), wk =   0.0222222
        k(   74) = (   0.4000000   0.7672383   0.6164765), wk =   0.0222222
        k(   75) = (   0.4000000   0.7672383  -0.8219687), wk =   0.0222222
        k(   76) = (  -0.2000000   0.0000000   0.2054922), wk =   0.0111111
        k(   77) = (  -0.2000000   0.0000000   0.4109844), wk =   0.0111111
        k(   78) = (  -0.2000000   0.0000000   0.6164765), wk =   0.0111111
        k(   79) = (  -0.2000000  -0.1918096   0.2054922), wk =   0.0222222
        k(   80) = (  -0.2000000  -0.1918096   0.4109844), wk =   0.0222222
        k(   81) = (  -0.2000000  -0.1918096   0.6164765), wk =   0.0222222
        k(   82) = (  -0.2000000  -0.3836191   0.2054922), wk =   0.0222222
        k(   83) = (  -0.2000000  -0.3836191   0.4109844), wk =   0.0222222
        k(   84) = (  -0.2000000  -0.3836191   0.6164765), wk =   0.0222222
        k(   85) = (  -0.2000000  -0.5754287   0.2054922), wk =   0.0222222
        k(   86) = (  -0.2000000  -0.5754287   0.4109844), wk =   0.0222222
        k(   87) = (  -0.2000000  -0.5754287   0.6164765), wk =   0.0222222
        k(   88) = (  -0.2000000  -0.7672383   0.2054922), wk =   0.0222222
        k(   89) = (  -0.2000000  -0.7672383   0.4109844), wk =   0.0222222
        k(   90) = (  -0.2000000  -0.7672383   0.6164765), wk =   0.0222222
        k(   91) = (  -0.4000000   0.0000000   0.2054922), wk =   0.0111111
        k(   92) = (  -0.4000000   0.0000000   0.4109844), wk =   0.0111111
        k(   93) = (  -0.4000000   0.0000000   0.6164765), wk =   0.0111111
        k(   94) = (  -0.4000000  -0.1918096   0.2054922), wk =   0.0222222
        k(   95) = (  -0.4000000  -0.1918096   0.4109844), wk =   0.0222222
        k(   96) = (  -0.4000000  -0.1918096   0.6164765), wk =   0.0222222
        k(   97) = (  -0.4000000  -0.3836191   0.2054922), wk =   0.0222222
        k(   98) = (  -0.4000000  -0.3836191   0.4109844), wk =   0.0222222
        k(   99) = (  -0.4000000  -0.3836191   0.6164765), wk =   0.0222222
        k(  100) = (  -0.4000000  -0.5754287   0.2054922), wk =   0.0222222
        k(  101) = (  -0.4000000  -0.5754287   0.4109844), wk =   0.0222222
        k(  102) = (  -0.4000000  -0.5754287   0.6164765), wk =   0.0222222
        k(  103) = (  -0.4000000  -0.7672383   0.2054922), wk =   0.0222222
        k(  104) = (  -0.4000000  -0.7672383   0.4109844), wk =   0.0222222
        k(  105) = (  -0.4000000  -0.7672383   0.6164765), wk =   0.0222222

                       cryst. coord.
        k(    1) = (   0.0000000   0.0000000   0.0000000), wk =   0.0055556
        k(    2) = (   0.0000000   0.0000000   0.1250000), wk =   0.0111111
        k(    3) = (   0.0000000   0.0000000   0.2500000), wk =   0.0111111
        k(    4) = (   0.0000000   0.0000000   0.3750000), wk =   0.0111111
        k(    5) = (   0.0000000   0.0000000  -0.5000000), wk =   0.0055556
        k(    6) = (   0.0000000   0.1111111   0.0000000), wk =   0.0111111
        k(    7) = (   0.0000000   0.1111111   0.1250000), wk =   0.0222222
        k(    8) = (   0.0000000   0.1111111   0.2500000), wk =   0.0222222
        k(    9) = (   0.0000000   0.1111111   0.3750000), wk =   0.0222222
        k(   10) = (   0.0000000   0.1111111  -0.5000000), wk =   0.0111111
        k(   11) = (   0.0000000   0.2222222   0.0000000), wk =   0.0111111
        k(   12) = (   0.0000000   0.2222222   0.1250000), wk =   0.0222222
        k(   13) = (   0.0000000   0.2222222   0.2500000), wk =   0.0222222
        k(   14) = (   0.0000000   0.2222222   0.3750000), wk =   0.0222222
        k(   15) = (   0.0000000   0.2222222  -0.5000000), wk =   0.0111111
        k(   16) = (   0.0000000   0.3333333   0.0000000), wk =   0.0111111
        k(   17) = (   0.0000000   0.3333333   0.1250000), wk =   0.0222222
        k(   18) = (   0.0000000   0.3333333   0.2500000), wk =   0.0222222
        k(   19) = (   0.0000000   0.3333333   0.3750000), wk =   0.0222222
        k(   20) = (   0.0000000   0.3333333  -0.5000000), wk =   0.0111111
        k(   21) = (   0.0000000   0.4444444   0.0000000), wk =   0.0111111
        k(   22) = (   0.0000000   0.4444444   0.1250000), wk =   0.0222222
        k(   23) = (   0.0000000   0.4444444   0.2500000), wk =   0.0222222
        k(   24) = (   0.0000000   0.4444444   0.3750000), wk =   0.0222222
        k(   25) = (   0.0000000   0.4444444  -0.5000000), wk =   0.0111111
        k(   26) = (   0.2000000   0.0000000   0.0000000), wk =   0.0111111
        k(   27) = (   0.2000000   0.0000000   0.1250000), wk =   0.0111111
        k(   28) = (   0.2000000   0.0000000   0.2500000), wk =   0.0111111
        k(   29) = (   0.2000000   0.0000000   0.3750000), wk =   0.0111111
        k(   30) = (   0.2000000   0.0000000  -0.5000000), wk =   0.0111111
        k(   31) = (   0.2000000   0.1111111   0.0000000), wk =   0.0222222
        k(   32) = (   0.2000000   0.1111111   0.1250000), wk =   0.0222222
        k(   33) = (   0.2000000   0.1111111   0.2500000), wk =   0.0222222
        k(   34) = (   0.2000000   0.1111111   0.3750000), wk =   0.0222222
        k(   35) = (   0.2000000   0.1111111  -0.5000000), wk =   0.0222222
        k(   36) = (   0.2000000   0.2222222   0.0000000), wk =   0.0222222
        k(   37) = (   0.2000000   0.2222222   0.1250000), wk =   0.0222222
        k(   38) = (   0.2000000   0.2222222   0.2500000), wk =   0.0222222
        k(   39) = (   0.2000000   0.2222222   0.3750000), wk =   0.0222222
        k(   40) = (   0.2000000   0.2222222  -0.5000000), wk =   0.0222222
        k(   41) = (   0.2000000   0.3333333   0.0000000), wk =   0.0222222
        k(   42) = (   0.2000000   0.3333333   0.1250000), wk =   0.0222222
        k(   43) = (   0.2000000   0.3333333   0.2500000), wk =   0.0222222
        k(   44) = (   0.2000000   0.3333333   0.3750000), wk =   0.0222222
        k(   45) = (   0.2000000   0.3333333  -0.5000000), wk =   0.0222222
        k(   46) = (   0.2000000   0.4444444   0.0000000), wk =   0.0222222
        k(   47) = (   0.2000000   0.4444444   0.1250000), wk =   0.0222222
        k(   48) = (   0.2000000   0.4444444   0.2500000), wk =   0.0222222
        k(   49) = (   0.2000000   0.4444444   0.3750000), wk =   0.0222222
        k(   50) = (   0.2000000   0.4444444  -0.5000000), wk =   0.0222222
        k(   51) = (   0.4000000   0.0000000   0.0000000), wk =   0.0111111
        k(   52) = (   0.4000000   0.0000000   0.1250000), wk =   0.0111111
        k(   53) = (   0.4000000   0.0000000   0.2500000), wk =   0.0111111
        k(   54) = (   0.4000000   0.0000000   0.3750000), wk =   0.0111111
        k(   55) = (   0.4000000   0.0000000  -0.5000000), wk =   0.0111111
        k(   56) = (   0.4000000   0.1111111   0.0000000), wk =   0.0222222
        k(   57) = (   0.4000000   0.1111111   0.1250000), wk =   0.0222222
        k(   58) = (   0.4000000   0.1111111   0.2500000), wk =   0.0222222
        k(   59) = (   0.4000000   0.1111111   0.3750000), wk =   0.0222222
        k(   60) = (   0.4000000   0.1111111  -0.5000000), wk =   0.0222222
        k(   61) = (   0.4000000   0.2222222   0.0000000), wk =   0.0222222
        k(   62) = (   0.4000000   0.2222222   0.1250000), wk =   0.0222222
        k(   63) = (   0.4000000   0.2222222   0.2500000), wk =   0.0222222
        k(   64) = (   0.4000000   0.2222222   0.3750000), wk =   0.0222222
        k(   65) = (   0.4000000   0.2222222  -0.5000000), wk =   0.0222222
        k(   66) = (   0.4000000   0.3333333   0.0000000), wk =   0.0222222
        k(   67) = (   0.4000000   0.3333333   0.1250000), wk =   0.0222222
        k(   68) = (   0.4000000   0.3333333   0.2500000), wk =   0.0222222
        k(   69) = (   0.4000000   0.3333333   0.3750000), wk =   0.0222222
        k(   70) = (   0.4000000   0.3333333  -0.5000000), wk =   0.0222222
        k(   71) = (   0.4000000   0.4444444   0.0000000), wk =   0.0222222
        k(   72) = (   0.4000000   0.4444444   0.1250000), wk =   0.0222222
        k(   73) = (   0.4000000   0.4444444   0.2500000), wk =   0.0222222
        k(   74) = (   0.4000000   0.4444444   0.3750000), wk =   0.0222222
        k(   75) = (   0.4000000   0.4444444  -0.5000000), wk =   0.0222222
        k(   76) = (  -0.2000000   0.0000000   0.1250000), wk =   0.0111111
        k(   77) = (  -0.2000000   0.0000000   0.2500000), wk =   0.0111111
        k(   78) = (  -0.2000000   0.0000000   0.3750000), wk =   0.0111111
        k(   79) = (  -0.2000000  -0.1111111   0.1250000), wk =   0.0222222
        k(   80) = (  -0.2000000  -0.1111111   0.2500000), wk =   0.0222222
        k(   81) = (  -0.2000000  -0.1111111   0.3750000), wk =   0.0222222
        k(   82) = (  -0.2000000  -0.2222222   0.1250000), wk =   0.0222222
        k(   83) = (  -0.2000000  -0.2222222   0.2500000), wk =   0.0222222
        k(   84) = (  -0.2000000  -0.2222222   0.3750000), wk =   0.0222222
        k(   85) = (  -0.2000000  -0.3333333   0.1250000), wk =   0.0222222
        k(   86) = (  -0.2000000  -0.3333333   0.2500000), wk =   0.0222222
        k(   87) = (  -0.2000000  -0.3333333   0.3750000), wk =   0.0222222
        k(   88) = (  -0.2000000  -0.4444444   0.1250000), wk =   0.0222222
        k(   89) = (  -0.2000000  -0.4444444   0.2500000), wk =   0.0222222
        k(   90) = (  -0.2000000  -0.4444444   0.3750000), wk =   0.0222222
        k(   91) = (  -0.4000000   0.0000000   0.1250000), wk =   0.0111111
        k(   92) = (  -0.4000000   0.0000000   0.2500000), wk =   0.0111111
        k(   93) = (  -0.4000000   0.0000000   0.3750000), wk =   0.0111111
        k(   94) = (  -0.4000000  -0.1111111   0.1250000), wk =   0.0222222
        k(   95) = (  -0.4000000  -0.1111111   0.2500000), wk =   0.0222222
        k(   96) = (  -0.4000000  -0.1111111   0.3750000), wk =   0.0222222
        k(   97) = (  -0.4000000  -0.2222222   0.1250000), wk =   0.0222222
        k(   98) = (  -0.4000000  -0.2222222   0.2500000), wk =   0.0222222
        k(   99) = (  -0.4000000  -0.2222222   0.3750000), wk =   0.0222222
        k(  100) = (  -0.4000000  -0.3333333   0.1250000), wk =   0.0222222
        k(  101) = (  -0.4000000  -0.3333333   0.2500000), wk =   0.0222222
        k(  102) = (  -0.4000000  -0.3333333   0.3750000), wk =   0.0222222
        k(  103) = (  -0.4000000  -0.4444444   0.1250000), wk =   0.0222222
        k(  104) = (  -0.4000000  -0.4444444   0.2500000), wk =   0.0222222
        k(  105) = (  -0.4000000  -0.4444444   0.3750000), wk =   0.0222222

     Dense  grid:   346835 G-vectors     FFT dimensions: ( 125,  72,  75)

     Smooth grid:   149683 G-vectors     FFT dimensions: (  96,  60,  60)

     Largest allocated arrays     est. size (Mb)     dimensions
        Kohn-Sham Wavefunctions         0.99 Mb     (     783,   83)
        NL pseudopotentials             1.91 Mb     (     783,  160)
        Each V/rho on FFT grid          0.55 Mb     (   36000)
        Each G-vector array             0.11 Mb     (   14450)
        G-vector shells                 0.11 Mb     (   14450)
     Largest temporary arrays     est. size (Mb)     dimensions
        Auxiliary wavefunctions         3.97 Mb     (     783,  332)
        Each subspace H/S matrix        0.18 Mb     (     110,  110)
        Each <psi_i|beta_j> matrix      0.20 Mb     (     160,   83)
        Arrays for rho mixing           4.39 Mb     (   36000,    8)

     Check: negative/imaginary core charge=   -0.000010    0.000000

     Initial potential from superposition of free atoms

     starting charge  137.99648, renormalised to  138.00000
     Starting wfc are  112 randomized atomic wfcs
     Checking if some PAW data can be deallocated... 
       node   20, deallocated PAW data for type:  1
       node   21, deallocated PAW data for type:  1
       node   22, deallocated PAW data for type:  1
       node   23, deallocated PAW data for type:  1

     total cpu time spent up to now is       13.6 secs

     per-process dynamical memory:   153.0 Mb

     Self-consistent Calculation

     iteration #  1     ecut=   140.00 Ry     beta=0.40
     Davidson diagonalization with overlap
     ethr =  1.00E-02,  avg # of iterations =  2.3

     Threshold (ethr) on eigenvalues was too large:
     Diagonalizing with lowered threshold

     Davidson diagonalization with overlap
     ethr =  7.48E-04,  avg # of iterations =  3.8

     total cpu time spent up to now is       67.7 secs

     total energy              =   -2673.79571501 Ry
     Harris-Foulkes estimate   =   -2674.29348364 Ry
     estimated scf accuracy    <       0.89386697 Ry

     iteration #  2     ecut=   140.00 Ry     beta=0.40
     Davidson diagonalization with overlap
     ethr =  6.48E-04,  avg # of iterations =  3.9

     total cpu time spent up to now is      102.4 secs

     total energy              =   -2673.12148720 Ry
     Harris-Foulkes estimate   =   -2674.78105155 Ry
     estimated scf accuracy    <      16.64753862 Ry

     iteration #  3     ecut=   140.00 Ry     beta=0.40
     Davidson diagonalization with overlap
     ethr =  6.48E-04,  avg # of iterations =  3.5

     total cpu time spent up to now is      133.7 secs

     total energy              =   -2673.84364606 Ry
     Harris-Foulkes estimate   =   -2674.37842319 Ry
     estimated scf accuracy    <       5.17446460 Ry

     iteration #  4     ecut=   140.00 Ry     beta=0.40
     Davidson diagonalization with overlap
     ethr =  6.48E-04,  avg # of iterations =  2.1

     total cpu time spent up to now is      160.0 secs

     total energy              =   -2673.88974059 Ry
     Harris-Foulkes estimate   =   -2674.50171138 Ry
     estimated scf accuracy    <       9.13546400 Ry

     iteration #  5     ecut=   140.00 Ry     beta=0.40
     Davidson diagonalization with overlap
     ethr =  6.48E-04,  avg # of iterations =  2.0

     total cpu time spent up to now is      184.0 secs

     total energy              =   -2674.10933683 Ry
     Harris-Foulkes estimate   =   -2674.16385341 Ry
     estimated scf accuracy    <       0.75873131 Ry

     iteration #  6     ecut=   140.00 Ry     beta=0.40
     Davidson diagonalization with overlap
     ethr =  5.50E-04,  avg # of iterations =  1.0

     total cpu time spent up to now is      206.4 secs

     total energy              =   -2674.12977231 Ry
     Harris-Foulkes estimate   =   -2674.15301453 Ry
     estimated scf accuracy    <       0.34794142 Ry

     iteration #  7     ecut=   140.00 Ry     beta=0.40
     Davidson diagonalization with overlap
     ethr =  2.52E-04,  avg # of iterations =  1.0

     total cpu time spent up to now is      228.3 secs

     total energy              =   -2674.09951777 Ry
     Harris-Foulkes estimate   =   -2674.19119384 Ry
     estimated scf accuracy    <       3.31334419 Ry

     iteration #  8     ecut=   140.00 Ry     beta=0.40
     Davidson diagonalization with overlap
     ethr =  2.52E-04,  avg # of iterations =  1.0

     total cpu time spent up to now is      251.3 secs

     total energy              =   -2674.13920946 Ry
     Harris-Foulkes estimate   =   -2674.14608068 Ry
     estimated scf accuracy    <       0.06786357 Ry

     iteration #  9     ecut=   140.00 Ry     beta=0.40
     Davidson diagonalization with overlap
     ethr =  4.92E-05,  avg # of iterations =  1.6

     total cpu time spent up to now is      274.1 secs

     total energy              =   -2674.14173109 Ry
     Harris-Foulkes estimate   =   -2674.14639684 Ry
     estimated scf accuracy    <       0.07027126 Ry

     iteration # 10     ecut=   140.00 Ry     beta=0.40
     Davidson diagonalization with overlap
     ethr =  4.92E-05,  avg # of iterations =  1.0

     total cpu time spent up to now is      295.9 secs

     total energy              =   -2674.14406352 Ry
     Harris-Foulkes estimate   =   -2674.14418568 Ry
     estimated scf accuracy    <       0.00199681 Ry

     iteration # 11     ecut=   140.00 Ry     beta=0.40
     Davidson diagonalization with overlap
     ethr =  1.45E-06,  avg # of iterations =  4.8

     total cpu time spent up to now is      327.5 secs

     total energy              =   -2674.14425648 Ry
     Harris-Foulkes estimate   =   -2674.14428509 Ry
     estimated scf accuracy    <       0.00045840 Ry

     iteration # 12     ecut=   140.00 Ry     beta=0.40
     Davidson diagonalization with overlap
     ethr =  3.32E-07,  avg # of iterations =  2.6

     total cpu time spent up to now is      352.7 secs

     total energy              =   -2674.14429112 Ry
     Harris-Foulkes estimate   =   -2674.14429903 Ry
     estimated scf accuracy    <       0.00013143 Ry

     iteration # 13     ecut=   140.00 Ry     beta=0.40
     Davidson diagonalization with overlap
     ethr =  9.52E-08,  avg # of iterations =  3.0

     total cpu time spent up to now is      379.6 secs

     total energy              =   -2674.14430455 Ry
     Harris-Foulkes estimate   =   -2674.14430667 Ry
     estimated scf accuracy    <       0.00002116 Ry

     iteration # 14     ecut=   140.00 Ry     beta=0.40
     Davidson diagonalization with overlap
     ethr =  1.53E-08,  avg # of iterations =  3.2

     total cpu time spent up to now is      412.2 secs

     total energy              =   -2674.14430876 Ry
     Harris-Foulkes estimate   =   -2674.14431096 Ry
     estimated scf accuracy    <       0.00002890 Ry

     iteration # 15     ecut=   140.00 Ry     beta=0.40
     Davidson diagonalization with overlap
     ethr =  1.53E-08,  avg # of iterations =  1.0

     total cpu time spent up to now is      434.1 secs

     total energy              =   -2674.14430985 Ry
     Harris-Foulkes estimate   =   -2674.14431004 Ry
     estimated scf accuracy    <       0.00000195 Ry

     iteration # 16     ecut=   140.00 Ry     beta=0.40
     Davidson diagonalization with overlap
     ethr =  1.42E-09,  avg # of iterations =  1.7

     total cpu time spent up to now is      457.1 secs

     total energy              =   -2674.14430976 Ry
     Harris-Foulkes estimate   =   -2674.14431023 Ry
     estimated scf accuracy    <       0.00000925 Ry

     iteration # 17     ecut=   140.00 Ry     beta=0.40
     Davidson diagonalization with overlap
     ethr =  1.42E-09,  avg # of iterations =  1.0

     total cpu time spent up to now is      479.0 secs

     total energy              =   -2674.14430996 Ry
     Harris-Foulkes estimate   =   -2674.14431009 Ry
     estimated scf accuracy    <       0.00000253 Ry

     iteration # 18     ecut=   140.00 Ry     beta=0.40
     Davidson diagonalization with overlap
     ethr =  1.42E-09,  avg # of iterations =  1.0

     total cpu time spent up to now is      501.3 secs

     total energy              =   -2674.14431004 Ry
     Harris-Foulkes estimate   =   -2674.14431006 Ry
     estimated scf accuracy    <       0.00000078 Ry

     iteration # 19     ecut=   140.00 Ry     beta=0.40
     Davidson diagonalization with overlap
     ethr =  5.63E-10,  avg # of iterations =  1.0

     total cpu time spent up to now is      523.1 secs

     total energy              =   -2674.14431005 Ry
     Harris-Foulkes estimate   =   -2674.14431006 Ry
     estimated scf accuracy    <       0.00000009 Ry

     iteration # 20     ecut=   140.00 Ry     beta=0.40
     Davidson diagonalization with overlap
     ethr =  6.44E-11,  avg # of iterations =  2.6

     total cpu time spent up to now is      549.3 secs

     total energy              =   -2674.14431006 Ry
     Harris-Foulkes estimate   =   -2674.14431006 Ry
     estimated scf accuracy    <       0.00000008 Ry

     iteration # 21     ecut=   140.00 Ry     beta=0.40
     Davidson diagonalization with overlap
     ethr =  5.85E-11,  avg # of iterations =  1.0

     total cpu time spent up to now is      571.6 secs

     total energy              =   -2674.14431007 Ry
     Harris-Foulkes estimate   =   -2674.14431007 Ry
     estimated scf accuracy    <          2.4E-09 Ry

     iteration # 22     ecut=   140.00 Ry     beta=0.40
     Davidson diagonalization with overlap
     ethr =  1.73E-12,  avg # of iterations =  3.9

     total cpu time spent up to now is      619.2 secs

     total energy              =   -2674.14431007 Ry
     Harris-Foulkes estimate   =   -2674.14431007 Ry
     estimated scf accuracy    <          3.8E-09 Ry

     iteration # 23     ecut=   140.00 Ry     beta=0.40
     Davidson diagonalization with overlap
     ethr =  1.73E-12,  avg # of iterations =  1.0

     total cpu time spent up to now is      640.9 secs

     End of self-consistent calculation

          k = 0.0000 0.0000 0.0000 ( 18781 PWs)   bands (ev):

   -68.8295 -68.8199 -68.6381 -68.6380 -68.4756 -68.4723 -68.1953 -68.1904
   -35.5780 -35.5562 -35.0349 -34.9911 -34.8776 -34.7715 -34.7693 -34.7307
   -34.7218 -34.6606 -34.6349 -34.6266 -34.5901 -34.5442 -34.5117 -34.4880
   -34.4880 -34.4138 -34.3466 -34.3265 -34.1804 -34.1688 -34.1644 -34.1368
     0.2719   1.5675   9.8480  11.1174  11.6803  11.9047  12.9342  13.0337
    13.7667  14.1149  14.4031  14.5060  14.5538  14.6418  14.6758  14.7173
    15.6963  15.7502  15.7649  15.8611  16.1097  16.2703  16.7719  16.8776
    17.1601  17.4367  17.6091  17.6363  17.6971  17.9447  17.9478  18.1396
    18.2025  18.3121  18.5078  18.6828  18.7148  18.8044  18.9663  18.9721
    19.0750  19.0830  19.1127  19.2694  19.6449  19.7020  19.8192  19.8935
    21.1025  22.0298  23.0994

     occupation numbers 
     1.0000   1.0000   1.0000   1.0000   1.0000   1.0000   1.0000   1.0000
     1.0000   1.0000   1.0000   1.0000   1.0000   1.0000   1.0000   1.0000
     1.0000   1.0000   1.0000   1.0000   1.0000   1.0000   1.0000   1.0000
     1.0000   1.0000   1.0000   1.0000   1.0000   1.0000   1.0000   1.0000
     1.0000   1.0000   1.0000   1.0000   1.0000   1.0000   1.0000   1.0000
     1.0000   1.0000   1.0000   1.0000   1.0000   1.0000   1.0000   1.0000
     1.0000   1.0000   1.0000   1.0000   1.0000   1.0000   1.0000   1.0000
     1.0000   1.0000   1.0000   1.0000   1.0000   1.0003   1.0003   1.0152
     1.0355   1.0809   0.7953   0.2055   0.1391   0.0362   0.0012   0.0010
     0.0001   0.0000   0.0000   0.0000   0.0000   0.0000   0.0000   0.0000
     0.0000   0.0000   0.0000

          k = 0.0000 0.0000 0.2055 ( 18751 PWs)   bands (ev):

   -68.8292 -68.8199 -68.6391 -68.6368 -68.4761 -68.4721 -68.1953 -68.1904
   -35.5804 -35.5554 -35.0338 -34.9907 -34.8699 -34.7732 -34.7664 -34.7359
   -34.7241 -34.6601 -34.6318 -34.6264 -34.5929 -34.5479 -34.5138 -34.4909
   -34.4874 -34.4078 -34.3459 -34.3274 -34.1814 -34.1692 -34.1638 -34.1369
     0.3206   1.6156   9.8477  11.0043  11.6474  11.7142  12.7696  12.9211
    13.6619  14.0808  14.4910  14.5893  14.7204  14.7617  14.8051  14.9290
    15.7355  15.7714  15.7731  15.8536  16.1023  16.2997  16.6971  16.9336
    16.9706  17.1625  17.7048  17.7170  17.7705  17.8335  18.1193  18.2110
    18.2522  18.2541  18.5154  18.6135  18.6895  18.8212  18.9318  18.9494
    18.9864  19.0458  19.0798  19.2090  19.5516  19.6965  19.7381  19.8551
    21.4047  21.9173  23.0422

     occupation numbers 
     1.0000   1.0000   1.0000   1.0000   1.0000   1.0000   1.0000   1.0000
     1.0000   1.0000   1.0000   1.0000   1.0000   1.0000   1.0000   1.0000
     1.0000   1.0000   1.0000   1.0000   1.0000   1.0000   1.0000   1.0000
     1.0000   1.0000   1.0000   1.0000   1.0000   1.0000   1.0000   1.0000
     1.0000   1.0000   1.0000   1.0000   1.0000   1.0000   1.0000   1.0000
     1.0000   1.0000   1.0000   1.0000   1.0000   1.0000   1.0000   1.0000
     1.0000   1.0000   1.0000   1.0000   1.0000   1.0000   1.0000   1.0000
     1.0000   1.0000   1.0000   1.0000   1.0000   1.0000   1.0110   1.0390
     1.0579   1.0588   0.7693   0.4093   0.1903   0.0269   0.0028   0.0018
     0.0007   0.0001   0.0001   0.0000   0.0000   0.0000   0.0000   0.0000
     0.0000   0.0000   0.0000

          k = 0.0000 0.0000 0.4110 ( 18736 PWs)   bands (ev):

   -68.8286 -68.8198 -68.6400 -68.6357 -68.4771 -68.4719 -68.1954 -68.1906
   -35.5860 -35.5537 -35.0310 -34.9898 -34.8488 -34.7765 -34.7601 -34.7484
   -34.7310 -34.6590 -34.6259 -34.6246 -34.6000 -34.5569 -34.5188 -34.4971
   -34.4865 -34.3935 -34.3449 -34.3306 -34.1831 -34.1704 -34.1621 -34.1372
     0.4425   1.7363   9.8459  10.6289  11.1850  11.5710  12.7070  12.8152
    13.3993  14.3035  14.5886  14.8313  14.8824  15.0850  15.1434  15.3246
    15.7836  15.8156  15.8501  15.8806  16.0598  16.3832  16.4566  16.6467
    16.7864  17.0996  17.5131  17.6490  17.7890  18.0228  18.0833  18.1707
    18.2014  18.4008  18.4153  18.4773  18.5808  18.7350  18.8500  18.8615
    18.8967  18.9436  19.0348  19.0799  19.5619  19.5649  19.6831  19.9347
    21.7766  22.2025  22.2774

     occupation numbers 
     1.0000   1.0000   1.0000   1.0000   1.0000   1.0000   1.0000   1.0000
     1.0000   1.0000   1.0000   1.0000   1.0000   1.0000   1.0000   1.0000
     1.0000   1.0000   1.0000   1.0000   1.0000   1.0000   1.0000   1.0000
     1.0000   1.0000   1.0000   1.0000   1.0000   1.0000   1.0000   1.0000
     1.0000   1.0000   1.0000   1.0000   1.0000   1.0000   1.0000   1.0000
     1.0000   1.0000   1.0000   1.0000   1.0000   1.0000   1.0000   1.0000
     1.0000   1.0000   1.0000   1.0000   1.0000   1.0000   1.0000   1.0000
     1.0000   1.0000   1.0000   1.0000   1.0000   1.0017   1.0058   1.0238
     1.0350   1.0474   1.0279   0.8914   0.5273   0.1061   0.0158   0.0126
     0.0061   0.0021   0.0002   0.0001   0.0000   0.0000   0.0000   0.0000
     0.0000   0.0000   0.0000

          k = 0.0000 0.0000 0.6165 ( 18706 PWs)   bands (ev):

   -68.8280 -68.8198 -68.6405 -68.6349 -68.4780 -68.4717 -68.1954 -68.1909
   -35.5916 -35.5520 -35.0282 -34.9889 -34.8202 -34.7774 -34.7624 -34.7610
   -34.7371 -34.6579 -34.6254 -34.6177 -34.6083 -34.5650 -34.5234 -34.5027
   -34.4859 -34.3780 -34.3450 -34.3362 -34.1843 -34.1715 -34.1603 -34.1375
     0.5711   1.8641   9.8426  10.2147  10.6309  11.4985  12.5381  13.2060
    13.2842  14.4928  14.6634  15.0332  15.1382  15.4528  15.4576  15.5780
    15.7558  15.8625  15.9111  15.9791  16.1840  16.1888  16.3297  16.4105
    16.4669  17.0727  17.3426  17.5331  17.8193  17.8834  17.9085  18.0053
    18.2566  18.2645  18.3311  18.3974  18.4293  18.5742  18.6924  18.7128
    18.7920  19.0106  19.0217  19.0818  19.6562  19.6693  19.7818  20.0067
    21.3609  22.0106  22.7244

     occupation numbers 
     1.0000   1.0000   1.0000   1.0000   1.0000   1.0000   1.0000   1.0000
     1.0000   1.0000   1.0000   1.0000   1.0000   1.0000   1.0000   1.0000
     1.0000   1.0000   1.0000   1.0000   1.0000   1.0000   1.0000   1.0000
     1.0000   1.0000   1.0000   1.0000   1.0000   1.0000   1.0000   1.0000
     1.0000   1.0000   1.0000   1.0000   1.0000   1.0000   1.0000   1.0000
     1.0000   1.0000   1.0000   1.0000   1.0000   1.0000   1.0000   1.0000
     1.0000   1.0000   1.0000   1.0000   1.0000   1.0000   1.0000   1.0000
     1.0000   1.0000   1.0000   1.0000   1.0000   1.0000   1.0001   1.0012
     1.0600   1.0636   1.0833   1.0512   1.0047   0.5520   0.1837   0.1427
     0.0446   0.0004   0.0003   0.0000   0.0000   0.0000   0.0000   0.0000
     0.0000   0.0000   0.0000

          k = 0.0000 0.0000-0.8220 ( 18676 PWs)   bands (ev):

   -68.8277 -68.8198 -68.6407 -68.6345 -68.4784 -68.4717 -68.1954 -68.1909
   -35.5939 -35.5512 -35.0270 -34.9885 -34.8004 -34.7741 -34.7717 -34.7717
   -34.7370 -34.6575 -34.6251 -34.6148 -34.6125 -34.5680 -34.5252 -34.5050
   -34.4857 -34.3703 -34.3454 -34.3402 -34.1846 -34.1720 -34.1595 -34.1376
     0.6266   1.9194   9.8407  10.0450  10.4051  11.4695  12.4765  13.1389
    13.7789  14.1579  14.8936  15.1112  15.3057  15.4082  15.6504  15.7326
    15.8324  15.8477  15.9326  16.0112  16.1142  16.1285  16.2381  16.4354
    16.4550  16.7795  17.4289  17.5181  17.6731  17.7190  17.8974  17.9383
    18.1471  18.2032  18.3610  18.3992  18.4862  18.4897  18.5092  18.7181
    18.7406  19.0056  19.0197  19.1533  19.6635  19.7102  19.9834  20.0348
    20.9196  22.1433  22.7963

     occupation numbers 
     1.0000   1.0000   1.0000   1.0000   1.0000   1.0000   1.0000   1.0000
     1.0000   1.0000   1.0000   1.0000   1.0000   1.0000   1.0000   1.0000
     1.0000   1.0000   1.0000   1.0000   1.0000   1.0000   1.0000   1.0000
     1.0000   1.0000   1.0000   1.0000   1.0000   1.0000   1.0000   1.0000
     1.0000   1.0000   1.0000   1.0000   1.0000   1.0000   1.0000   1.0000
     1.0000   1.0000   1.0000   1.0000   1.0000   1.0000   1.0000   1.0000
     1.0000   1.0000   1.0000   1.0000   1.0000   1.0000   1.0000   1.0000
     1.0000   1.0000   1.0000   1.0000   1.0000   1.0000   1.0001   1.0002
     1.0170   1.0358   1.0781   1.0492   0.8650   0.8543   0.7906   0.1332
     0.0981   0.0004   0.0003   0.0000   0.0000   0.0000   0.0000   0.0000
     0.0000   0.0000   0.0000

          k = 0.0000 0.1918 0.0000 ( 18769 PWs)   bands (ev):

   -68.8290 -68.8199 -68.6384 -68.6381 -68.4757 -68.4722 -68.1953 -68.1906
   -35.5820 -35.5552 -35.0303 -34.9881 -34.8736 -34.7704 -34.7680 -34.7315
   -34.7251 -34.6888 -34.6324 -34.6065 -34.5901 -34.5439 -34.5089 -34.4939
   -34.4924 -34.4116 -34.3432 -34.3286 -34.1780 -34.1660 -34.1647 -34.1407
     0.3266   1.6255   9.8308  11.1135  11.4471  11.8609  12.7994  12.8150
    13.8470  13.8821  14.4832  14.5578  14.6285  14.6876  14.8360  14.9900
    15.7270  15.7909  15.7996  15.8608  16.1242  16.2320  16.7973  16.8243
    17.1139  17.4544  17.5057  17.5531  17.7797  17.9526  17.9891  18.0633
    18.3333  18.4210  18.5203  18.6468  18.6553  18.7813  18.9143  18.9820
    19.0109  19.0311  19.0623  19.2552  19.5422  19.6399  19.8344  19.9246
    21.3550  22.0478  22.9663

     occupation numbers 
     1.0000   1.0000   1.0000   1.0000   1.0000   1.0000   1.0000   1.0000
     1.0000   1.0000   1.0000   1.0000   1.0000   1.0000   1.0000   1.0000
     1.0000   1.0000   1.0000   1.0000   1.0000   1.0000   1.0000   1.0000
     1.0000   1.0000   1.0000   1.0000   1.0000   1.0000   1.0000   1.0000
     1.0000   1.0000   1.0000   1.0000   1.0000   1.0000   1.0000   1.0000
     1.0000   1.0000   1.0000   1.0000   1.0000   1.0000   1.0000   1.0000
     1.0000   1.0000   1.0000   1.0000   1.0000   1.0000   1.0000   1.0000
     1.0000   1.0000   1.0000   1.0000   1.0000   1.0003   1.0008   1.0040
     1.0833   1.0191   0.7521   0.3021   0.2773   0.0531   0.0041   0.0008
     0.0004   0.0002   0.0001   0.0000   0.0000   0.0000   0.0000   0.0000
     0.0000   0.0000   0.0000

          k = 0.0000 0.1918 0.2055 ( 18745 PWs)   bands (ev):

   -68.8288 -68.8199 -68.6393 -68.6371 -68.4761 -68.4720 -68.1953 -68.1907
   -35.5845 -35.5545 -35.0295 -34.9875 -34.8663 -34.7737 -34.7651 -34.7387
   -34.7276 -34.6815 -34.6321 -34.6072 -34.5934 -34.5479 -34.5108 -34.4939
   -34.4918 -34.4065 -34.3429 -34.3294 -34.1788 -34.1655 -34.1648 -34.1406
     0.3752   1.6739   9.8278  10.9932  11.4173  11.6925  12.4918  12.8812
    13.6152  14.0443  14.5553  14.6319  14.7724  14.8063  14.9600  15.1205
    15.7599  15.7808  15.8128  15.8299  16.1907  16.2818  16.6568  16.8822
    16.9655  17.1911  17.5709  17.6474  17.8324  17.8351  18.0649  18.2058
    18.3721  18.3851  18.5309  18.5649  18.6396  18.7850  18.9063  18.9107
    19.0017  19.0177  19.0185  19.2239  19.4644  19.6186  19.7176  20.0389
    21.5384  21.9944  23.0766

     occupation numbers 
     1.0000   1.0000   1.0000   1.0000   1.0000   1.0000   1.0000   1.0000
     1.0000   1.0000   1.0000   1.0000   1.0000   1.0000   1.0000   1.0000
     1.0000   1.0000   1.0000   1.0000   1.0000   1.0000   1.0000   1.0000
     1.0000   1.0000   1.0000   1.0000   1.0000   1.0000   1.0000   1.0000
     1.0000   1.0000   1.0000   1.0000   1.0000   1.0000   1.0000   1.0000
     1.0000   1.0000   1.0000   1.0000   1.0000   1.0000   1.0000   1.0000
     1.0000   1.0000   1.0000   1.0000   1.0000   1.0000   1.0000   1.0000
     1.0000   1.0000   1.0000   1.0000   1.0000   1.0000   1.0041   1.0368
     1.0725   1.0632   0.7140   0.5872   0.3239   0.0500   0.0049   0.0045
     0.0005   0.0003   0.0003   0.0000   0.0000   0.0000   0.0000   0.0000
     0.0000   0.0000   0.0000

          k = 0.0000 0.1918 0.4110 ( 18721 PWs)   bands (ev):

   -68.8282 -68.8198 -68.6400 -68.6360 -68.4770 -68.4718 -68.1954 -68.1909
   -35.5904 -35.5528 -35.0276 -34.9861 -34.8461 -34.7804 -34.7590 -34.7531
   -34.7348 -34.6669 -34.6312 -34.6096 -34.6013 -34.5578 -34.5141 -34.4974
   -34.4886 -34.3939 -34.3429 -34.3324 -34.1803 -34.1660 -34.1634 -34.1406
     0.4968   1.7956   9.8195  10.6057  11.1874  11.3453  12.2728  12.9841
    13.3444  14.3011  14.6464  14.8717  14.9712  15.0838  15.2768  15.3675
    15.6816  15.8521  15.8984  15.9389  16.2206  16.3907  16.4290  16.7038
    16.7450  17.0218  17.5182  17.6305  17.6752  17.9193  18.0693  18.2532
    18.2664  18.4117  18.4793  18.5220  18.5700  18.7166  18.8136  18.8532
    18.8899  18.9616  19.0751  19.0798  19.4142  19.5746  19.6571  20.2084
    21.7481  22.3072  22.3541

     occupation numbers 
     1.0000   1.0000   1.0000   1.0000   1.0000   1.0000   1.0000   1.0000
     1.0000   1.0000   1.0000   1.0000   1.0000   1.0000   1.0000   1.0000
     1.0000   1.0000   1.0000   1.0000   1.0000   1.0000   1.0000   1.0000
     1.0000   1.0000   1.0000   1.0000   1.0000   1.0000   1.0000   1.0000
     1.0000   1.0000   1.0000   1.0000   1.0000   1.0000   1.0000   1.0000
     1.0000   1.0000   1.0000   1.0000   1.0000   1.0000   1.0000   1.0000
     1.0000   1.0000   1.0000   1.0000   1.0000   1.0000   1.0000   1.0000
     1.0000   1.0000   1.0000   1.0000   1.0000   1.0001   1.0045   1.0584
     1.0645   1.0332   0.8856   0.7462   0.5679   0.1359   0.0309   0.0148
     0.0070   0.0013   0.0001   0.0001   0.0000   0.0000   0.0000   0.0000
     0.0000   0.0000   0.0000

          k = 0.0000 0.1918 0.6165 ( 18715 PWs)   bands (ev):

   -68.8275 -68.8198 -68.6405 -68.6352 -68.4778 -68.4717 -68.1954 -68.1911
   -35.5961 -35.5511 -35.0256 -34.9849 -34.8189 -34.7850 -34.7669 -34.7605
   -34.7406 -34.6531 -34.6302 -34.6136 -34.6098 -34.5676 -34.5165 -34.5007
   -34.4866 -34.3800 -34.3437 -34.3376 -34.1812 -34.1669 -34.1615 -34.1406
     0.6250   1.9246   9.8100  10.1833  10.6414  11.2715  12.1898  13.1596
    13.4060  14.5434  14.6314  15.0931  15.1751  15.3576  15.4445  15.6387
    15.7220  15.9329  15.9564  16.1655  16.2022  16.2425  16.3834  16.3957
    16.6234  16.9140  17.2692  17.5716  17.7438  17.8514  17.8551  18.1596
    18.1926  18.2854  18.3750  18.4853  18.5163  18.5944  18.7310  18.7685
    18.7826  18.9521  19.0270  19.0544  19.4353  19.6251  19.8482  20.3717
    21.3571  21.9183  22.7991

     occupation numbers 
     1.0000   1.0000   1.0000   1.0000   1.0000   1.0000   1.0000   1.0000
     1.0000   1.0000   1.0000   1.0000   1.0000   1.0000   1.0000   1.0000
     1.0000   1.0000   1.0000   1.0000   1.0000   1.0000   1.0000   1.0000
     1.0000   1.0000   1.0000   1.0000   1.0000   1.0000   1.0000   1.0000
     1.0000   1.0000   1.0000   1.0000   1.0000   1.0000   1.0000   1.0000
     1.0000   1.0000   1.0000   1.0000   1.0000   1.0000   1.0000   1.0000
     1.0000   1.0000   1.0000   1.0000   1.0000   1.0000   1.0000   1.0000
     1.0000   1.0000   1.0000   1.0000   1.0000   1.0000   1.0000   1.0204
     1.0315   1.0725   1.0707   0.8679   0.7662   0.4773   0.1121   0.0649
     0.0520   0.0017   0.0002   0.0001   0.0000   0.0000   0.0000   0.0000
     0.0000   0.0000   0.0000

          k = 0.0000 0.1918-0.8220 ( 18698 PWs)   bands (ev):

   -68.8273 -68.8198 -68.6407 -68.6350 -68.4782 -68.4717 -68.1954 -68.1912
   -35.5985 -35.5504 -35.0247 -34.9843 -34.8004 -34.7858 -34.7732 -34.7709
   -34.7400 -34.6468 -34.6298 -34.6162 -34.6137 -34.5715 -34.5174 -34.5020
   -34.4860 -34.3731 -34.3443 -34.3410 -34.1814 -34.1672 -34.1607 -34.1407
     0.6803   1.9805   9.8057  10.0100  10.4190  11.2423  12.1555  13.0958
    13.9336  14.1519  14.8757  15.0231  15.3410  15.3678  15.6759  15.7263
    15.8213  15.8311  15.9953  16.1755  16.1762  16.2792  16.2926  16.4844
    16.6114  16.7184  17.1224  17.6597  17.6817  17.7144  17.8482  18.0200
    18.1513  18.2375  18.3477  18.3969  18.5507  18.5830  18.6541  18.7092
    18.8041  18.9229  19.0266  19.0449  19.4386  19.6914  20.0690  20.4254
    20.8596  22.0175  22.9093

     occupation numbers 
     1.0000   1.0000   1.0000   1.0000   1.0000   1.0000   1.0000   1.0000
     1.0000   1.0000   1.0000   1.0000   1.0000   1.0000   1.0000   1.0000
     1.0000   1.0000   1.0000   1.0000   1.0000   1.0000   1.0000   1.0000
     1.0000   1.0000   1.0000   1.0000   1.0000   1.0000   1.0000   1.0000
     1.0000   1.0000   1.0000   1.0000   1.0000   1.0000   1.0000   1.0000
     1.0000   1.0000   1.0000   1.0000   1.0000   1.0000   1.0000   1.0000
     1.0000   1.0000   1.0000   1.0000   1.0000   1.0000   1.0000   1.0000
     1.0000   1.0000   1.0000   1.0000   1.0000   1.0000   1.0000   1.0016
     1.0181   1.0510   1.0820   1.0518   0.6405   0.5193   0.2806   0.1495
     0.0364   0.0034   0.0002   0.0001   0.0000   0.0000   0.0000   0.0000
     0.0000   0.0000   0.0000

          k = 0.0000 0.3836 0.0000 ( 18737 PWs)   bands (ev):

   -68.8278 -68.8198 -68.6395 -68.6379 -68.4758 -68.4718 -68.1953 -68.1911
   -35.5919 -35.5527 -35.0183 -34.9807 -34.8629 -34.7673 -34.7646 -34.7340
   -34.7339 -34.7221 -34.6470 -34.5909 -34.5728 -34.5432 -34.5073 -34.5029
   -34.5018 -34.4053 -34.3360 -34.3345 -34.1719 -34.1700 -34.1548 -34.1507
     0.4704   1.7791   9.7871  10.8869  11.0260  11.5349  12.5733  12.6984
    13.5575  14.0817  14.5936  14.7207  14.8124  14.8244  15.1972  15.4012
    15.7904  15.8053  15.9048  15.9461  16.1282  16.1660  16.6088  16.9209
    17.0664  17.3058  17.3799  17.4789  17.8956  17.9494  17.9840  18.0374
    18.4187  18.4207  18.4945  18.6493  18.6551  18.7523  18.7607  18.8195
    18.8715  18.8852  19.0191  19.2292  19.2352  19.6379  19.8761  20.0107
    21.9423  22.1720  22.5063

     occupation numbers 
     1.0000   1.0000   1.0000   1.0000   1.0000   1.0000   1.0000   1.0000
     1.0000   1.0000   1.0000   1.0000   1.0000   1.0000   1.0000   1.0000
     1.0000   1.0000   1.0000   1.0000   1.0000   1.0000   1.0000   1.0000
     1.0000   1.0000   1.0000   1.0000   1.0000   1.0000   1.0000   1.0000
     1.0000   1.0000   1.0000   1.0000   1.0000   1.0000   1.0000   1.0000
     1.0000   1.0000   1.0000   1.0000   1.0000   1.0000   1.0000   1.0000
     1.0000   1.0000   1.0000   1.0000   1.0000   1.0000   1.0000   1.0000
     1.0000   1.0000   1.0000   1.0000   1.0001   1.0003   1.0007   1.0024
     1.0227   1.0195   0.8393   0.2944   0.2778   0.0829   0.0731   0.0278
     0.0103   0.0077   0.0003   0.0000   0.0000   0.0000   0.0000   0.0000
     0.0000   0.0000   0.0000

          k = 0.0000 0.3836 0.2055 ( 18714 PWs)   bands (ev):

   -68.8276 -68.8198 -68.6398 -68.6375 -68.4761 -68.4717 -68.1953 -68.1912
   -35.5946 -35.5521 -35.0185 -34.9796 -34.8565 -34.7770 -34.7618 -34.7453
   -34.7369 -34.7035 -34.6465 -34.5954 -34.5756 -34.5476 -34.5060 -34.5015
   -34.4989 -34.4022 -34.3367 -34.3352 -34.1723 -34.1691 -34.1549 -34.1503
     0.5187   1.8287   9.7776  10.8311  10.9585  11.4193  12.1085  12.9147
    13.4271  14.1734  14.6927  14.7541  14.9230  14.9276  15.2870  15.4406
    15.6362  15.9021  15.9201  15.9631  16.2034  16.3797  16.4836  16.8900
    16.9893  17.1558  17.3322  17.4785  17.8543  17.9527  17.9961  18.1640
    18.4070  18.4558  18.5012  18.5784  18.6394  18.6592  18.8026  18.8323
    18.8743  18.9764  19.0602  19.1567  19.2542  19.5710  19.7609  20.2696
    21.7940  22.2330  22.6950

     occupation numbers 
     1.0000   1.0000   1.0000   1.0000   1.0000   1.0000   1.0000   1.0000
     1.0000   1.0000   1.0000   1.0000   1.0000   1.0000   1.0000   1.0000
     1.0000   1.0000   1.0000   1.0000   1.0000   1.0000   1.0000   1.0000
     1.0000   1.0000   1.0000   1.0000   1.0000   1.0000   1.0000   1.0000
     1.0000   1.0000   1.0000   1.0000   1.0000   1.0000   1.0000   1.0000
     1.0000   1.0000   1.0000   1.0000   1.0000   1.0000   1.0000   1.0000
     1.0000   1.0000   1.0000   1.0000   1.0000   1.0000   1.0000   1.0000
     1.0000   1.0000   1.0000   1.0000   1.0000   1.0003   1.0009   1.0217
     1.0397   0.9484   0.8174   0.5363   0.3243   0.2662   0.0373   0.0220
     0.0097   0.0009   0.0001   0.0000   0.0000   0.0000   0.0000   0.0000
     0.0000   0.0000   0.0000

          k = 0.0000 0.3836 0.4110 ( 18735 PWs)   bands (ev):

   -68.8270 -68.8198 -68.6403 -68.6368 -68.4767 -68.4717 -68.1954 -68.1914
   -35.6010 -35.5505 -35.0187 -34.9770 -34.8389 -34.7934 -34.7597 -34.7561
   -34.7448 -34.6760 -34.6450 -34.6049 -34.5849 -34.5590 -34.5039 -34.4983
   -34.4928 -34.3939 -34.3385 -34.3374 -34.1731 -34.1670 -34.1553 -34.1495
     0.6395   1.9532   9.7540  10.5301  10.7952  11.1661  11.5892  13.1737
    13.2101  14.3594  14.8170  14.9487  15.1113  15.1438  15.3413  15.5145
    15.6884  15.9472  16.1013  16.1356  16.2202  16.3171  16.6892  16.7153
    16.8457  16.8895  17.3194  17.4277  17.8269  17.8430  17.9139  18.2737
    18.3100  18.3613  18.5152  18.5362  18.6086  18.7320  18.7512  18.8289
    18.9355  19.0025  19.0867  19.1405  19.1865  19.5686  19.6513  20.5717
    21.6467  22.4201  22.4666

     occupation numbers 
     1.0000   1.0000   1.0000   1.0000   1.0000   1.0000   1.0000   1.0000
     1.0000   1.0000   1.0000   1.0000   1.0000   1.0000   1.0000   1.0000
     1.0000   1.0000   1.0000   1.0000   1.0000   1.0000   1.0000   1.0000
     1.0000   1.0000   1.0000   1.0000   1.0000   1.0000   1.0000   1.0000
     1.0000   1.0000   1.0000   1.0000   1.0000   1.0000   1.0000   1.0000
     1.0000   1.0000   1.0000   1.0000   1.0000   1.0000   1.0000   1.0000
     1.0000   1.0000   1.0000   1.0000   1.0000   1.0000   1.0000   1.0000
     1.0000   1.0000   1.0000   1.0000   1.0000   1.0000   1.0001   1.0677
     1.0804   1.0779   0.7699   0.6948   0.4264   0.1106   0.0843   0.0234
     0.0025   0.0005   0.0000   0.0000   0.0000   0.0000   0.0000   0.0000
     0.0000   0.0000   0.0000

          k = 0.0000 0.3836 0.6165 ( 18724 PWs)   bands (ev):

   -68.8265 -68.8198 -68.6405 -68.6362 -68.4773 -68.4717 -68.1954 -68.1916
   -35.6074 -35.5489 -35.0187 -34.9748 -34.8154 -34.8052 -34.7720 -34.7606
   -34.7473 -34.6483 -34.6431 -34.6136 -34.6008 -34.5711 -34.5019 -34.4956
   -34.4881 -34.3844 -34.3410 -34.3406 -34.1733 -34.1648 -34.1557 -34.1489
     0.7669   2.0857   9.7299  10.1030  10.6318  10.7549  11.4855  13.0527
    13.6233  14.5701  14.7013  15.0059  15.2424  15.4296  15.4404  15.7653
    15.7685  15.9684  16.0430  16.2233  16.2689  16.4521  16.4867  16.7356
    16.8067  17.0106  17.0272  17.5820  17.6456  17.7950  17.8960  18.1645
    18.2512  18.2666  18.3586  18.3973  18.5468  18.7011  18.7332  18.9029
    18.9391  19.0296  19.0521  19.0825  19.1325  19.5898  19.7943  20.8421
    21.2885  21.6057  22.5508

     occupation numbers 
     1.0000   1.0000   1.0000   1.0000   1.0000   1.0000   1.0000   1.0000
     1.0000   1.0000   1.0000   1.0000   1.0000   1.0000   1.0000   1.0000
     1.0000   1.0000   1.0000   1.0000   1.0000   1.0000   1.0000   1.0000
     1.0000   1.0000   1.0000   1.0000   1.0000   1.0000   1.0000   1.0000
     1.0000   1.0000   1.0000   1.0000   1.0000   1.0000   1.0000   1.0000
     1.0000   1.0000   1.0000   1.0000   1.0000   1.0000   1.0000   1.0000
     1.0000   1.0000   1.0000   1.0000   1.0000   1.0000   1.0000   1.0000
     1.0000   1.0000   1.0000   1.0000   1.0000   1.0000   1.0001   1.0219
     1.0575   1.0646   1.0789   1.0513   0.6551   0.1653   0.1088   0.0053
     0.0023   0.0002   0.0001   0.0000   0.0000   0.0000   0.0000   0.0000
     0.0000   0.0000   0.0000

          k = 0.0000 0.3836-0.8220 ( 18752 PWs)   bands (ev):

   -68.8263 -68.8197 -68.6406 -68.6360 -68.4776 -68.4717 -68.1954 -68.1917
   -35.6099 -35.5483 -35.0187 -34.9740 -34.8094 -34.8003 -34.7769 -34.7702
   -34.7456 -34.6422 -34.6254 -34.6196 -34.6172 -34.5762 -34.5010 -34.4946
   -34.4866 -34.3797 -34.3432 -34.3415 -34.1734 -34.1638 -34.1559 -34.1487
     0.8218   2.1432   9.7198   9.9243  10.4402  10.7010  11.4707  12.9974
    14.1747  14.2655  14.7327  14.8473  15.3857  15.5694  15.6574  15.7240
    15.7793  15.9365  16.1041  16.1128  16.2903  16.5456  16.5804  16.6790
    16.7974  16.9013  17.1193  17.5604  17.6066  17.7586  17.9724  18.1121
    18.2065  18.2157  18.2306  18.2548  18.5519  18.6881  18.7758  18.8528
    18.9734  19.0055  19.0145  19.0363  19.1243  19.6121  20.0990  20.6516
    20.9538  21.6002  22.5576

     occupation numbers 
     1.0000   1.0000   1.0000   1.0000   1.0000   1.0000   1.0000   1.0000
     1.0000   1.0000   1.0000   1.0000   1.0000   1.0000   1.0000   1.0000
     1.0000   1.0000   1.0000   1.0000   1.0000   1.0000   1.0000   1.0000
     1.0000   1.0000   1.0000   1.0000   1.0000   1.0000   1.0000   1.0000
     1.0000   1.0000   1.0000   1.0000   1.0000   1.0000   1.0000   1.0000
     1.0000   1.0000   1.0000   1.0000   1.0000   1.0000   1.0000   1.0000
     1.0000   1.0000   1.0000   1.0000   1.0000   1.0000   1.0000   1.0000
     1.0000   1.0000   1.0000   1.0000   1.0000   1.0000   1.0005   1.0097
     1.0371   1.0411   1.0478   1.0591   0.6360   0.1934   0.0579   0.0149
     0.0010   0.0004   0.0003   0.0002   0.0000   0.0000   0.0000   0.0000
     0.0000   0.0000   0.0000

          k = 0.0000 0.5754 0.0000 ( 18701 PWs)   bands (ev):

   -68.8264 -68.8198 -68.6408 -68.6378 -68.4759 -68.4713 -68.1953 -68.1917
   -35.6027 -35.5499 -35.0035 -34.9727 -34.8492 -34.7631 -34.7604 -34.7471
   -34.7457 -34.7373 -34.6641 -34.5926 -34.5470 -34.5424 -34.5207 -34.5145
   -34.4932 -34.3959 -34.3434 -34.3298 -34.1745 -34.1648 -34.1625 -34.1443
     0.6445   1.9679   9.7373  10.2862  10.6392  11.2371  12.3569  13.0785
    13.3146  14.4416  14.5605  14.9549  14.9771  15.0813  15.5881  15.6345
    15.6660  15.9075  15.9697  16.1153  16.1815  16.2112  16.3814  16.9791
    17.0763  17.1418  17.2235  17.4403  17.7085  17.8928  18.0882  18.1168
    18.1831  18.3093  18.3467  18.3856  18.4701  18.6164  18.6520  18.7756
    18.8206  18.9886  19.0010  19.0368  19.3009  19.6790  19.9248  20.1167
    21.8507  22.2811  22.4649

     occupation numbers 
     1.0000   1.0000   1.0000   1.0000   1.0000   1.0000   1.0000   1.0000
     1.0000   1.0000   1.0000   1.0000   1.0000   1.0000   1.0000   1.0000
     1.0000   1.0000   1.0000   1.0000   1.0000   1.0000   1.0000   1.0000
     1.0000   1.0000   1.0000   1.0000   1.0000   1.0000   1.0000   1.0000
     1.0000   1.0000   1.0000   1.0000   1.0000   1.0000   1.0000   1.0000
     1.0000   1.0000   1.0000   1.0000   1.0000   1.0000   1.0000   1.0000
     1.0000   1.0000   1.0000   1.0000   1.0000   1.0000   1.0000   1.0000
     1.0000   1.0000   1.0000   1.0000   1.0000   1.0001   1.0064   1.0105
     1.0280   1.0802   1.0821   1.0628   0.9115   0.3996   0.2866   0.0581
     0.0272   0.0007   0.0005   0.0002   0.0000   0.0000   0.0000   0.0000
     0.0000   0.0000   0.0000

          k = 0.0000 0.5754 0.2055 ( 18703 PWs)   bands (ev):

   -68.8262 -68.8198 -68.6408 -68.6377 -68.4761 -68.4714 -68.1953 -68.1918
   -35.6057 -35.5493 -35.0051 -34.9707 -34.8439 -34.7853 -34.7577 -34.7489
   -34.7489 -34.7163 -34.6636 -34.5984 -34.5511 -34.5472 -34.5137 -34.5101
   -34.4922 -34.3947 -34.3435 -34.3311 -34.1735 -34.1651 -34.1616 -34.1442
     0.6925   2.0189   9.7210  10.2491  10.6542  11.0320  11.9830  13.2264
    13.2319  14.4571  14.6652  15.0019  15.0895  15.1067  15.3906  15.6224
    15.7581  15.9334  16.0492  16.1574  16.3068  16.3308  16.5028  16.9216
    17.0551  17.0790  17.1142  17.2556  17.7790  17.9852  18.0392  18.0798
    18.2040  18.3516  18.4359  18.4451  18.4842  18.6213  18.6213  18.7827
    18.8981  18.9547  18.9734  19.1406  19.2609  19.6045  19.8463  20.4024
    21.8351  22.0388  22.3479

     occupation numbers 
     1.0000   1.0000   1.0000   1.0000   1.0000   1.0000   1.0000   1.0000
     1.0000   1.0000   1.0000   1.0000   1.0000   1.0000   1.0000   1.0000
     1.0000   1.0000   1.0000   1.0000   1.0000   1.0000   1.0000   1.0000
     1.0000   1.0000   1.0000   1.0000   1.0000   1.0000   1.0000   1.0000
     1.0000   1.0000   1.0000   1.0000   1.0000   1.0000   1.0000   1.0000
     1.0000   1.0000   1.0000   1.0000   1.0000   1.0000   1.0000   1.0000
     1.0000   1.0000   1.0000   1.0000   1.0000   1.0000   1.0000   1.0000
     1.0000   1.0000   1.0000   1.0000   1.0000   1.0007   1.0024   1.0055
     1.0361   1.0811   0.9922   0.9731   0.8711   0.3829   0.3828   0.0519
     0.0059   0.0016   0.0010   0.0000   0.0000   0.0000   0.0000   0.0000
     0.0000   0.0000   0.0000

          k = 0.0000 0.5754 0.4110 ( 18715 PWs)   bands (ev):

   -68.8257 -68.8197 -68.6407 -68.6375 -68.4764 -68.4715 -68.1953 -68.1920
   -35.6127 -35.5479 -35.0083 -34.9668 -34.8293 -34.8094 -34.7630 -34.7573
   -34.7518 -34.6821 -34.6619 -34.6092 -34.5643 -34.5595 -34.5004 -34.4995
   -34.4895 -34.3917 -34.3441 -34.3341 -34.1710 -34.1651 -34.1601 -34.1441
     0.8123   2.1475   9.6817  10.1654  10.4788  10.7574  11.3035  13.0717
    13.5043  14.4751  14.9212  15.0690  15.0876  15.2078  15.3636  15.7344
    15.8779  15.9565  16.0475  16.2412  16.4452  16.6182  16.6589  16.8534
    16.9771  17.1059  17.1443  17.1783  17.5780  17.9101  17.9462  18.1695
    18.2767  18.3061  18.4323  18.4726  18.5596  18.6267  18.6710  18.8159
    18.9429  18.9532  19.1471  19.2182  19.2183  19.4866  19.7291  20.7388
    21.5078  21.6583  22.4621

     occupation numbers 
     1.0000   1.0000   1.0000   1.0000   1.0000   1.0000   1.0000   1.0000
     1.0000   1.0000   1.0000   1.0000   1.0000   1.0000   1.0000   1.0000
     1.0000   1.0000   1.0000   1.0000   1.0000   1.0000   1.0000   1.0000
     1.0000   1.0000   1.0000   1.0000   1.0000   1.0000   1.0000   1.0000
     1.0000   1.0000   1.0000   1.0000   1.0000   1.0000   1.0000   1.0000
     1.0000   1.0000   1.0000   1.0000   1.0000   1.0000   1.0000   1.0000
     1.0000   1.0000   1.0000   1.0000   1.0000   1.0000   1.0000   1.0000
     1.0000   1.0000   1.0000   1.0000   1.0000   1.0001   1.0003   1.0234
     1.0690   1.0794   0.9992   0.9048   0.6071   0.3649   0.2347   0.0296
     0.0021   0.0017   0.0000   0.0000   0.0000   0.0000   0.0000   0.0000
     0.0000   0.0000   0.0000

          k = 0.0000 0.5754 0.6165 ( 18736 PWs)   bands (ev):

   -68.8253 -68.8197 -68.6407 -68.6373 -68.4768 -68.4716 -68.1953 -68.1923
   -35.6196 -35.5464 -35.0107 -34.9638 -34.8253 -34.8108 -34.7760 -34.7675
   -34.7471 -34.6594 -34.6482 -34.6179 -34.5856 -34.5727 -34.4904 -34.4900
   -34.4865 -34.3880 -34.3452 -34.3372 -34.1684 -34.1647 -34.1588 -34.1439
     0.9387   2.2849   9.6428  10.0058  10.1165  10.6828  10.8183  12.9453
    13.9098  14.4842  14.8980  14.9185  15.2486  15.4020  15.5936  15.7956
    15.8872  15.9952  16.1217  16.2347  16.3818  16.6173  16.6783  16.9205
    17.0801  17.2202  17.4090  17.4574  17.5329  17.7435  17.8933  18.1016
    18.2011  18.3096  18.3463  18.4128  18.4785  18.6077  18.7442  18.8117
    19.0573  19.0712  19.1140  19.1801  19.2398  19.5270  19.6001  20.7217
    20.9270  21.4700  22.1135

     occupation numbers 
     1.0000   1.0000   1.0000   1.0000   1.0000   1.0000   1.0000   1.0000
     1.0000   1.0000   1.0000   1.0000   1.0000   1.0000   1.0000   1.0000
     1.0000   1.0000   1.0000   1.0000   1.0000   1.0000   1.0000   1.0000
     1.0000   1.0000   1.0000   1.0000   1.0000   1.0000   1.0000   1.0000
     1.0000   1.0000   1.0000   1.0000   1.0000   1.0000   1.0000   1.0000
     1.0000   1.0000   1.0000   1.0000   1.0000   1.0000   1.0000   1.0000
     1.0000   1.0000   1.0000   1.0000   1.0000   1.0000   1.0000   1.0000
     1.0000   1.0000   1.0000   1.0000   1.0000   1.0000   1.0001   1.0081
     1.0349   1.0803   1.0822   1.0316   0.8880   0.4295   0.0932   0.0319
     0.0001   0.0001   0.0000   0.0000   0.0000   0.0000   0.0000   0.0000
     0.0000   0.0000   0.0000

          k = 0.0000 0.5754-0.8220 ( 18766 PWs)   bands (ev):

   -68.8251 -68.8197 -68.6406 -68.6372 -68.4770 -68.4717 -68.1953 -68.1924
   -35.6225 -35.5458 -35.0116 -34.9627 -34.8308 -34.8002 -34.7811 -34.7737
   -34.7459 -34.6582 -34.6234 -34.6212 -34.6062 -34.5784 -34.4872 -34.4864
   -34.4848 -34.3863 -34.3459 -34.3385 -34.1673 -34.1645 -34.1583 -34.1439
     0.9932   2.3448   9.6267   9.8321  10.0725  10.4976  10.7945  12.8996
    14.2654  14.4885  14.6700  14.8275  15.3142  15.6669  15.7138  15.7289
    15.8181  16.0442  16.0908  16.2650  16.3909  16.5771  16.7018  16.7602
    17.2566  17.3628  17.4112  17.5411  17.7500  17.8025  17.8618  17.9775
    18.1663  18.2606  18.3287  18.3674  18.4364  18.5544  18.8078  18.8202
    19.0016  19.0508  19.1293  19.1992  19.2295  19.3989  19.9356  20.2446
    20.6681  21.6168  21.8496

     occupation numbers 
     1.0000   1.0000   1.0000   1.0000   1.0000   1.0000   1.0000   1.0000
     1.0000   1.0000   1.0000   1.0000   1.0000   1.0000   1.0000   1.0000
     1.0000   1.0000   1.0000   1.0000   1.0000   1.0000   1.0000   1.0000
     1.0000   1.0000   1.0000   1.0000   1.0000   1.0000   1.0000   1.0000
     1.0000   1.0000   1.0000   1.0000   1.0000   1.0000   1.0000   1.0000
     1.0000   1.0000   1.0000   1.0000   1.0000   1.0000   1.0000   1.0000
     1.0000   1.0000   1.0000   1.0000   1.0000   1.0000   1.0000   1.0000
     1.0000   1.0000   1.0000   1.0000   1.0000   1.0000   1.0000   1.0006
     1.0224   1.0618   1.0832   1.0751   0.9913   0.6268   0.0341   0.0274
     0.0005   0.0001   0.0000   0.0000   0.0000   0.0000   0.0000   0.0000
     0.0000   0.0000   0.0000

          k = 0.0000 0.7672 0.0000 ( 18687 PWs)   bands (ev):

   -68.8254 -68.8197 -68.6417 -68.6377 -68.4760 -68.4710 -68.1954 -68.1921
   -35.6096 -35.5481 -34.9932 -34.9675 -34.8387 -34.7604 -34.7595 -34.7573
   -34.7549 -34.7404 -34.6760 -34.5940 -34.5418 -34.5323 -34.5288 -34.5226
   -34.4873 -34.3869 -34.3519 -34.3266 -34.1775 -34.1706 -34.1602 -34.1377
     0.7652   2.1008   9.7048   9.9070  10.2673  11.1553  12.2357  13.1876
    13.6478  14.2759  14.8524  15.0939  15.1173  15.2915  15.3699  15.7502
    15.8527  15.8994  15.9969  16.1540  16.2290  16.3316  16.4448  16.8236
    16.9338  17.1380  17.3855  17.4378  17.5677  17.7900  17.8273  17.8893
    18.0729  18.2430  18.2868  18.3184  18.4077  18.4986  18.5761  18.7076
    18.9122  18.9267  18.9562  19.0359  19.4690  19.8885  19.9568  20.1904
    21.0334  22.2130  22.6898

     occupation numbers 
     1.0000   1.0000   1.0000   1.0000   1.0000   1.0000   1.0000   1.0000
     1.0000   1.0000   1.0000   1.0000   1.0000   1.0000   1.0000   1.0000
     1.0000   1.0000   1.0000   1.0000   1.0000   1.0000   1.0000   1.0000
     1.0000   1.0000   1.0000   1.0000   1.0000   1.0000   1.0000   1.0000
     1.0000   1.0000   1.0000   1.0000   1.0000   1.0000   1.0000   1.0000
     1.0000   1.0000   1.0000   1.0000   1.0000   1.0000   1.0000   1.0000
     1.0000   1.0000   1.0000   1.0000   1.0000   1.0000   1.0000   1.0000
     1.0000   1.0000   1.0000   1.0000   1.0000   1.0000   1.0000   1.0001
     1.0048   1.0536   1.0731   1.0821   1.0388   0.8259   0.5449   0.1525
     0.0043   0.0031   0.0015   0.0002   0.0000   0.0000   0.0000   0.0000
     0.0000   0.0000   0.0000

          k = 0.0000 0.7672 0.2055 ( 18701 PWs)   bands (ev):

   -68.8253 -68.8197 -68.6415 -68.6377 -68.4761 -68.4711 -68.1954 -68.1922
   -35.6128 -35.5475 -34.9960 -34.9648 -34.8341 -34.7928 -34.7582 -34.7546
   -34.7485 -34.7228 -34.6757 -34.6007 -34.5469 -34.5374 -34.5195 -34.5159
   -34.4861 -34.3874 -34.3512 -34.3279 -34.1764 -34.1698 -34.1600 -34.1375
     0.8129   2.1530   9.6844   9.8711  10.2901  10.9398  11.9163  13.1219
    13.7302  14.3997  14.7651  15.1688  15.1695  15.2413  15.2712  15.7793
    15.8587  15.9354  16.0059  16.3332  16.3588  16.5254  16.5964  16.8325
    16.9300  16.9900  17.0999  17.3654  17.6625  17.8067  17.8355  18.0484
    18.1376  18.2696  18.2757  18.3283  18.4991  18.5578  18.5825  18.7283
    18.8313  18.9080  18.9313  19.1756  19.3744  19.8562  19.9231  20.4601
    20.9549  22.2140  22.3209

     occupation numbers 
     1.0000   1.0000   1.0000   1.0000   1.0000   1.0000   1.0000   1.0000
     1.0000   1.0000   1.0000   1.0000   1.0000   1.0000   1.0000   1.0000
     1.0000   1.0000   1.0000   1.0000   1.0000   1.0000   1.0000   1.0000
     1.0000   1.0000   1.0000   1.0000   1.0000   1.0000   1.0000   1.0000
     1.0000   1.0000   1.0000   1.0000   1.0000   1.0000   1.0000   1.0000
     1.0000   1.0000   1.0000   1.0000   1.0000   1.0000   1.0000   1.0000
     1.0000   1.0000   1.0000   1.0000   1.0000   1.0000   1.0000   1.0000
     1.0000   1.0000   1.0000   1.0000   1.0000   1.0000   1.0000   1.0030
     1.0147   1.0659   1.0686   1.0832   0.8243   0.6138   0.5212   0.1162
     0.0224   0.0047   0.0028   0.0000   0.0000   0.0000   0.0000   0.0000
     0.0000   0.0000   0.0000

          k = 0.0000 0.7672 0.4110 ( 18714 PWs)   bands (ev):

   -68.8249 -68.8197 -68.6412 -68.6378 -68.4763 -68.4714 -68.1953 -68.1924
   -35.6202 -35.5462 -35.0013 -34.9600 -34.8218 -34.8194 -34.7663 -34.7643
   -34.7484 -34.6853 -34.6742 -34.6121 -34.5595 -34.5529 -34.5027 -34.5004
   -34.4827 -34.3886 -34.3495 -34.3314 -34.1736 -34.1677 -34.1596 -34.1371
     0.9321   2.2848   9.6357   9.7928  10.3312  10.4457  11.2728  12.9894
    13.9253  14.5732  14.6949  14.9891  15.2255  15.2963  15.4643  15.8279
    15.8922  15.9803  16.0275  16.4414  16.5815  16.7243  16.8059  16.9229
    17.0293  17.0762  17.1327  17.4171  17.4193  17.7700  17.7882  18.1817
    18.2441  18.2475  18.3199  18.3423  18.5230  18.6125  18.6518  18.6620
    18.9221  18.9930  19.1310  19.1953  19.2692  19.7407  19.7931  20.6905
    20.8787  21.3050  22.5801

     occupation numbers 
     1.0000   1.0000   1.0000   1.0000   1.0000   1.0000   1.0000   1.0000
     1.0000   1.0000   1.0000   1.0000   1.0000   1.0000   1.0000   1.0000
     1.0000   1.0000   1.0000   1.0000   1.0000   1.0000   1.0000   1.0000
     1.0000   1.0000   1.0000   1.0000   1.0000   1.0000   1.0000   1.0000
     1.0000   1.0000   1.0000   1.0000   1.0000   1.0000   1.0000   1.0000
     1.0000   1.0000   1.0000   1.0000   1.0000   1.0000   1.0000   1.0000
     1.0000   1.0000   1.0000   1.0000   1.0000   1.0000   1.0000   1.0000
     1.0000   1.0000   1.0000   1.0000   1.0000   1.0000   1.0000   1.0275
     1.0541   1.0557   1.0823   1.0828   0.7426   0.4130   0.2871   0.2585
     0.0035   0.0006   0.0000   0.0000   0.0000   0.0000   0.0000   0.0000
     0.0000   0.0000   0.0000

          k = 0.0000 0.7672 0.6165 ( 18728 PWs)   bands (ev):

   -68.8245 -68.8197 -68.6408 -68.6379 -68.4765 -68.4716 -68.1953 -68.1927
   -35.6274 -35.5448 -35.0052 -34.9567 -34.8369 -34.8073 -34.7784 -34.7748
   -34.7433 -34.6717 -34.6493 -34.6207 -34.5761 -34.5730 -34.4910 -34.4866
   -34.4778 -34.3897 -34.3481 -34.3351 -34.1707 -34.1658 -34.1591 -34.1367
     1.0578   2.4262   9.5879   9.7218   9.9662  10.3723  10.7204  12.8814
    14.1963  14.4158  14.8598  14.9986  15.2181  15.3819  15.6676  15.7632
    15.9459  16.0803  16.2200  16.2573  16.5740  16.7071  16.7350  16.9321
    17.1504  17.3616  17.5264  17.6393  17.7152  17.7446  17.8560  18.1613
    18.1702  18.2400  18.2824  18.4162  18.4329  18.5686  18.7827  18.8095
    19.0309  19.1110  19.1612  19.2614  19.2806  19.4808  19.4923  20.1914
    20.4696  21.2872  22.0466

     occupation numbers 
     1.0000   1.0000   1.0000   1.0000   1.0000   1.0000   1.0000   1.0000
     1.0000   1.0000   1.0000   1.0000   1.0000   1.0000   1.0000   1.0000
     1.0000   1.0000   1.0000   1.0000   1.0000   1.0000   1.0000   1.0000
     1.0000   1.0000   1.0000   1.0000   1.0000   1.0000   1.0000   1.0000
     1.0000   1.0000   1.0000   1.0000   1.0000   1.0000   1.0000   1.0000
     1.0000   1.0000   1.0000   1.0000   1.0000   1.0000   1.0000   1.0000
     1.0000   1.0000   1.0000   1.0000   1.0000   1.0000   1.0000   1.0000
     1.0000   1.0000   1.0000   1.0000   1.0000   1.0000   1.0000   1.0209
     1.0236   1.0522   1.0713   1.0266   0.9981   0.5733   0.0519   0.0331
     0.0002   0.0000   0.0000   0.0000   0.0000   0.0000   0.0000   0.0000
     0.0000   0.0000   0.0000

          k = 0.0000 0.7672-0.8220 ( 18738 PWs)   bands (ev):

   -68.8243 -68.8197 -68.6406 -68.6379 -68.4765 -68.4717 -68.1953 -68.1928
   -35.6304 -35.5442 -35.0066 -34.9556 -34.8430 -34.8002 -34.7839 -34.7785
   -34.7417 -34.6704 -34.6259 -34.6238 -34.5952 -34.5789 -34.4876 -34.4812
   -34.4749 -34.3902 -34.3477 -34.3367 -34.1695 -34.1650 -34.1588 -34.1365
     1.1120   2.4880   9.5683   9.6946   9.7751  10.3846  10.5068  12.8417
    14.3580  14.3622  14.8168  15.0631  15.2371  15.4482  15.7346  15.7972
    15.9495  16.0282  16.1692  16.4011  16.5200  16.6570  16.7818  16.9621
    16.9992  17.5155  17.5399  17.6150  17.7369  18.0349  18.0368  18.1307
    18.2342  18.2396  18.4858  18.5100  18.5162  18.5309  18.8928  18.9036
    18.9970  19.0062  19.1166  19.2241  19.2462  19.2874  19.4783  19.7140
    20.2018  21.4139  21.8198

     occupation numbers 
     1.0000   1.0000   1.0000   1.0000   1.0000   1.0000   1.0000   1.0000
     1.0000   1.0000   1.0000   1.0000   1.0000   1.0000   1.0000   1.0000
     1.0000   1.0000   1.0000   1.0000   1.0000   1.0000   1.0000   1.0000
     1.0000   1.0000   1.0000   1.0000   1.0000   1.0000   1.0000   1.0000
     1.0000   1.0000   1.0000   1.0000   1.0000   1.0000   1.0000   1.0000
     1.0000   1.0000   1.0000   1.0000   1.0000   1.0000   1.0000   1.0000
     1.0000   1.0000   1.0000   1.0000   1.0000   1.0000   1.0000   1.0000
     1.0000   1.0000   1.0000   1.0000   1.0000   1.0022   1.0023   1.0132
     1.0495   1.0520   0.8662   0.7879   0.7666   0.7142   0.0066   0.0052
     0.0005   0.0004   0.0000   0.0000   0.0000   0.0000   0.0000   0.0000
     0.0000   0.0000   0.0000

          k = 0.2000 0.0000 0.0000 ( 18759 PWs)   bands (ev):

   -68.8286 -68.8208 -68.6381 -68.6380 -68.4753 -68.4726 -68.1948 -68.1908
   -35.5759 -35.5582 -35.0311 -34.9957 -34.8739 -34.8094 -34.7402 -34.7255
   -34.7160 -34.6568 -34.6293 -34.6290 -34.5917 -34.5699 -34.5097 -34.4906
   -34.4672 -34.4158 -34.3464 -34.3298 -34.1792 -34.1663 -34.1655 -34.1397
     0.3744   1.4150  10.1823  11.2415  11.7680  11.9886  12.6596  12.8178
    13.4166  13.5531  14.4895  14.5730  14.6154  14.7549  14.9137  14.9199
    15.4079  15.5743  15.7913  15.9952  15.9985  16.3197  16.7382  16.7544
    17.2989  17.6762  17.6803  17.7212  17.7655  18.0400  18.1048  18.1907
    18.2559  18.3596  18.5987  18.6863  18.7114  18.8233  18.9410  18.9760
    19.0469  19.0755  19.1119  19.2603  19.5063  19.5273  19.7145  19.7752
    21.2693  22.1077  23.0544

     occupation numbers 
     1.0000   1.0000   1.0000   1.0000   1.0000   1.0000   1.0000   1.0000
     1.0000   1.0000   1.0000   1.0000   1.0000   1.0000   1.0000   1.0000
     1.0000   1.0000   1.0000   1.0000   1.0000   1.0000   1.0000   1.0000
     1.0000   1.0000   1.0000   1.0000   1.0000   1.0000   1.0000   1.0000
     1.0000   1.0000   1.0000   1.0000   1.0000   1.0000   1.0000   1.0000
     1.0000   1.0000   1.0000   1.0000   1.0000   1.0000   1.0000   1.0000
     1.0000   1.0000   1.0000   1.0000   1.0000   1.0000   1.0000   1.0000
     1.0000   1.0000   1.0000   1.0000   1.0000   1.0025   1.0086   1.0308
     1.0596   1.0786   0.4616   0.1975   0.1453   0.0260   0.0022   0.0009
     0.0001   0.0001   0.0000   0.0000   0.0000   0.0000   0.0000   0.0000
     0.0000   0.0000   0.0000

          k = 0.2000 0.0000 0.2055 ( 18733 PWs)   bands (ev):

   -68.8284 -68.8208 -68.6389 -68.6370 -68.4757 -68.4725 -68.1949 -68.1909
   -35.5780 -35.5578 -35.0300 -34.9952 -34.8665 -34.8068 -34.7428 -34.7279
   -34.7182 -34.6564 -34.6291 -34.6274 -34.5946 -34.5737 -34.5117 -34.4903
   -34.4694 -34.4105 -34.3456 -34.3307 -34.1797 -34.1659 -34.1656 -34.1398
     0.4230   1.4631  10.1747  11.1123  11.7330  11.7450  12.6194  12.7304
    13.3002  13.6435  14.5660  14.6591  14.7167  14.8599  14.9990  15.0700
    15.4491  15.6043  15.7986  16.0022  16.0130  16.3318  16.7036  16.7074
    17.2535  17.3216  17.6994  17.8269  17.8623  17.9309  18.1428  18.1945
    18.2910  18.3448  18.6162  18.6223  18.6595  18.8499  18.9036  18.9713
    19.0037  19.0085  19.0878  19.2309  19.4918  19.5360  19.7120  19.7508
    21.5052  22.0109  22.8104

     occupation numbers 
     1.0000   1.0000   1.0000   1.0000   1.0000   1.0000   1.0000   1.0000
     1.0000   1.0000   1.0000   1.0000   1.0000   1.0000   1.0000   1.0000
     1.0000   1.0000   1.0000   1.0000   1.0000   1.0000   1.0000   1.0000
     1.0000   1.0000   1.0000   1.0000   1.0000   1.0000   1.0000   1.0000
     1.0000   1.0000   1.0000   1.0000   1.0000   1.0000   1.0000   1.0000
     1.0000   1.0000   1.0000   1.0000   1.0000   1.0000   1.0000   1.0000
     1.0000   1.0000   1.0000   1.0000   1.0000   1.0000   1.0000   1.0000
     1.0000   1.0000   1.0000   1.0000   1.0000   1.0002   1.0160   1.0323
     1.0746   1.0825   0.4001   0.3795   0.2655   0.0158   0.0052   0.0011
     0.0005   0.0004   0.0000   0.0000   0.0000   0.0000   0.0000   0.0000
     0.0000   0.0000   0.0000

          k = 0.2000 0.0000 0.4110 ( 18730 PWs)   bands (ev):

   -68.8278 -68.8207 -68.6395 -68.6361 -68.4766 -68.4724 -68.1949 -68.1911
   -35.5830 -35.5568 -35.0274 -34.9941 -34.8465 -34.8005 -34.7507 -34.7326
   -34.7243 -34.6555 -34.6287 -34.6238 -34.6024 -34.5825 -34.5160 -34.4898
   -34.4739 -34.3982 -34.3440 -34.3333 -34.1808 -34.1669 -34.1639 -34.1401
     0.5448   1.5838  10.1459  10.7018  11.1821  11.6521  12.5524  12.7919
    13.0927  13.9364  14.6661  14.9025  14.9117  15.1010  15.2370  15.4062
    15.5439  15.6807  15.8209  16.0047  16.0505  16.3573  16.5319  16.5321
    16.9516  17.2873  17.5753  17.6484  17.7276  18.0339  18.0852  18.1658
    18.2480  18.3503  18.4576  18.4910  18.5566  18.6991  18.8108  18.9299
    18.9635  19.0057  19.0982  19.1175  19.5607  19.5729  19.6717  19.8309
    21.7948  22.0729  22.3497

     occupation numbers 
     1.0000   1.0000   1.0000   1.0000   1.0000   1.0000   1.0000   1.0000
[...]
   -32.6592 -32.6536 -32.6496 -32.6419 -32.5141 -32.5018 -32.4929 -32.4725
   -32.4402 -32.4386 -32.0484 -32.0464 -32.0173 -32.0151 -32.0038 -32.0000
     2.8442   3.1038  11.9163  11.9839  12.1556  12.5880  12.7681  12.9899
    15.4644  15.7317  17.0289  17.1683  17.2794  17.3495  17.3609  17.4371
    17.5139  17.7024  17.8948  17.9525  18.3638  18.4593  18.5975  18.7339
    18.7852  18.8666  19.3960  19.4106  19.5135  19.5826  19.6194  19.7719
    20.1983  20.2633  20.4962  20.5572  20.6434  20.7397  21.1052  21.1674
    21.2815  21.3104  21.3311  21.3679  22.1628  22.3947  22.6074  22.7734
    24.7642  24.9076  25.0651

     occupation numbers 
     1.0000   1.0000   1.0000   1.0000   1.0000   1.0000   1.0000   1.0000
     1.0000   1.0000   1.0000   1.0000   1.0000   1.0000   1.0000   1.0000
     1.0000   1.0000   1.0000   1.0000   1.0000   1.0000   1.0000   1.0000
     1.0000   1.0000   1.0000   1.0000   1.0000   1.0000   1.0000   1.0000
     1.0000   1.0000   1.0000   1.0000   1.0000   1.0000   1.0000   1.0000
     1.0000   1.0000   1.0000   1.0000   1.0000   1.0000   1.0000   1.0000
     1.0000   1.0000   1.0000   1.0000   1.0000   1.0000   1.0000   1.0000
     1.0000   1.0000   1.0000   1.0000   1.0000   1.0000   1.0000   1.0000
     1.0009   1.0036   1.0746   1.0810   0.9877   0.7010   0.0057   0.0013
     0.0001   0.0000   0.0000   0.0000   0.0000   0.0000   0.0000   0.0000
     0.0000   0.0000   0.0000

          k =-0.3699-0.6184 0.6803 ( 17065 PWs)   bands (ev):

   -66.6864 -66.6825 -66.6543 -66.6512 -66.6186 -66.6180 -65.9537 -65.9536
   -33.4555 -33.4118 -33.1478 -33.1024 -33.0334 -33.0294 -32.7048 -32.6962
   -32.6814 -32.6735 -32.6703 -32.6564 -32.5032 -32.4971 -32.4763 -32.4700
   -32.4219 -32.4209 -32.0429 -32.0394 -32.0163 -32.0131 -32.0032 -31.9984
     3.1247   3.3907  11.5190  11.5766  11.9462  12.1456  12.2242  12.8276
    15.8718  15.9909  17.0724  17.1456  17.2793  17.3977  17.6033  17.7023
    17.8054  18.0286  18.2184  18.3328  18.3764  18.4942  18.5599  18.6050
    18.6899  18.7446  19.2079  19.3355  19.3517  19.4402  19.4738  19.6993
    20.3554  20.4411  20.4460  20.6217  20.7604  20.8890  21.0089  21.1615
    21.2559  21.2642  21.3134  21.3926  22.0973  22.3142  22.8421  22.9741
    24.1605  24.3207  24.8755

     occupation numbers 
     1.0000   1.0000   1.0000   1.0000   1.0000   1.0000   1.0000   1.0000
     1.0000   1.0000   1.0000   1.0000   1.0000   1.0000   1.0000   1.0000
     1.0000   1.0000   1.0000   1.0000   1.0000   1.0000   1.0000   1.0000
     1.0000   1.0000   1.0000   1.0000   1.0000   1.0000   1.0000   1.0000
     1.0000   1.0000   1.0000   1.0000   1.0000   1.0000   1.0000   1.0000
     1.0000   1.0000   1.0000   1.0000   1.0000   1.0000   1.0000   1.0000
     1.0000   1.0000   1.0000   1.0000   1.0000   1.0000   1.0000   1.0000
     1.0000   1.0000   1.0000   1.0000   1.0000   1.0000   1.0000   1.0000
     1.0178   1.0502   1.0525   1.0263   0.6239   0.2035   0.0366   0.0015
     0.0001   0.0001   0.0000   0.0000   0.0000   0.0000   0.0000   0.0000
     0.0000   0.0000   0.0000

          k =-0.3699-0.8245 0.2268 ( 17043 PWs)   bands (ev):

   -66.6856 -66.6817 -66.6566 -66.6563 -66.6173 -66.6140 -65.9536 -65.9534
   -33.4054 -33.3665 -33.1554 -33.1264 -33.0750 -33.0629 -32.6894 -32.6618
   -32.6444 -32.6380 -32.6359 -32.6157 -32.5326 -32.5198 -32.5005 -32.4762
   -32.4536 -32.4500 -32.0498 -32.0459 -32.0251 -32.0169 -32.0107 -32.0057
     2.7813   3.0391  11.6503  11.7292  12.2365  12.9881  13.3701  13.5287
    15.7238  15.9957  16.5609  16.8684  17.2594  17.3601  17.4606  17.5488
    17.5800  17.7280  17.9399  17.9660  18.1004  18.1636  18.3938  18.6688
    18.8157  18.9573  19.3392  19.5278  19.5699  19.6968  19.8071  19.8728
    20.0341  20.1566  20.4984  20.5817  20.6200  20.7257  20.8770  20.9835
    21.1322  21.2314  21.3673  21.4653  21.5233  21.8098  22.1910  22.4441
    24.2919  25.0049  25.7353

     occupation numbers 
     1.0000   1.0000   1.0000   1.0000   1.0000   1.0000   1.0000   1.0000
     1.0000   1.0000   1.0000   1.0000   1.0000   1.0000   1.0000   1.0000
     1.0000   1.0000   1.0000   1.0000   1.0000   1.0000   1.0000   1.0000
     1.0000   1.0000   1.0000   1.0000   1.0000   1.0000   1.0000   1.0000
     1.0000   1.0000   1.0000   1.0000   1.0000   1.0000   1.0000   1.0000
     1.0000   1.0000   1.0000   1.0000   1.0000   1.0000   1.0000   1.0000
     1.0000   1.0000   1.0000   1.0000   1.0000   1.0000   1.0000   1.0000
     1.0000   1.0000   1.0000   1.0000   1.0000   1.0000   1.0000   1.0000
     1.0000   1.0003   1.0754   1.0698   1.0288   0.7517   0.2328   0.0558
     0.0031   0.0002   0.0000   0.0000   0.0000   0.0000   0.0000   0.0000
     0.0000   0.0000   0.0000

          k =-0.3699-0.8245 0.4535 ( 17058 PWs)   bands (ev):

   -66.6829 -66.6800 -66.6565 -66.6561 -66.6189 -66.6166 -65.9537 -65.9536
   -33.4456 -33.4022 -33.1465 -33.1018 -33.0418 -33.0399 -32.7027 -32.6821
   -32.6770 -32.6698 -32.6609 -32.6489 -32.5114 -32.4963 -32.4927 -32.4636
   -32.4298 -32.4280 -32.0439 -32.0418 -32.0175 -32.0117 -32.0086 -32.0029
     3.0349   3.2982  11.5165  11.6219  12.0545  12.4295  12.6429  12.9228
    15.9275  16.0671  16.8129  16.9869  17.3866  17.4212  17.5955  17.7590
    17.8565  17.9611  18.1068  18.1967  18.2240  18.3500  18.4388  18.4727
    18.6831  18.7653  19.2733  19.3331  19.4485  19.5378  19.5772  19.6979
    20.1780  20.3255  20.6379  20.6976  20.7688  20.8503  20.9964  21.0492
    21.2305  21.2670  21.3524  21.3983  21.6659  21.8558  22.7482  23.1147
    24.2447  24.6926  24.8803

     occupation numbers 
     1.0000   1.0000   1.0000   1.0000   1.0000   1.0000   1.0000   1.0000
     1.0000   1.0000   1.0000   1.0000   1.0000   1.0000   1.0000   1.0000
     1.0000   1.0000   1.0000   1.0000   1.0000   1.0000   1.0000   1.0000
     1.0000   1.0000   1.0000   1.0000   1.0000   1.0000   1.0000   1.0000
     1.0000   1.0000   1.0000   1.0000   1.0000   1.0000   1.0000   1.0000
     1.0000   1.0000   1.0000   1.0000   1.0000   1.0000   1.0000   1.0000
     1.0000   1.0000   1.0000   1.0000   1.0000   1.0000   1.0000   1.0000
     1.0000   1.0000   1.0000   1.0000   1.0000   1.0000   1.0000   1.0000
     1.0005   1.0112   0.9985   0.8462   0.5925   0.3074   0.0452   0.0177
     0.0003   0.0001   0.0000   0.0000   0.0000   0.0000   0.0000   0.0000
     0.0000   0.0000   0.0000

          k =-0.3699-0.8245 0.6803 ( 17053 PWs)   bands (ev):

   -66.6800 -66.6783 -66.6563 -66.6559 -66.6206 -66.6194 -65.9538 -65.9537
   -33.4784 -33.4310 -33.1407 -33.0919 -33.0111 -33.0098 -32.7147 -32.7101
   -32.7029 -32.6900 -32.6767 -32.6728 -32.5006 -32.4927 -32.4750 -32.4607
   -32.4070 -32.4062 -32.0378 -32.0347 -32.0122 -32.0086 -32.0051 -32.0003
     3.3183   3.5895  11.3781  11.4668  11.6719  11.7277  12.0496  12.7336
    16.1106  16.1667  17.0452  17.0812  17.3748  17.3931  17.6463  17.8777
    18.1028  18.2488  18.2955  18.4153  18.5300  18.5508  18.6035  18.6692
    18.7303  18.8622  19.0469  19.1929  19.2309  19.3155  19.4435  19.6907
    20.3628  20.5231  20.6112  20.7576  20.7906  20.9353  20.9865  21.0643
    21.1614  21.2927  21.4260  21.4870  21.8952  21.9450  23.0092  23.0221
    23.4723  23.7544  24.8870

     occupation numbers 
     1.0000   1.0000   1.0000   1.0000   1.0000   1.0000   1.0000   1.0000
     1.0000   1.0000   1.0000   1.0000   1.0000   1.0000   1.0000   1.0000
     1.0000   1.0000   1.0000   1.0000   1.0000   1.0000   1.0000   1.0000
     1.0000   1.0000   1.0000   1.0000   1.0000   1.0000   1.0000   1.0000
     1.0000   1.0000   1.0000   1.0000   1.0000   1.0000   1.0000   1.0000
     1.0000   1.0000   1.0000   1.0000   1.0000   1.0000   1.0000   1.0000
     1.0000   1.0000   1.0000   1.0000   1.0000   1.0000   1.0000   1.0000
     1.0000   1.0000   1.0000   1.0000   1.0000   1.0000   1.0000   1.0000
     1.0198   1.0820   1.0410   0.6347   0.5105   0.1136   0.0531   0.0132
     0.0015   0.0000   0.0000   0.0000   0.0000   0.0000   0.0000   0.0000
     0.0000   0.0000   0.0000

     the Fermi energy is    20.8213 ev

!    total energy              =   -2674.33435078 Ry
     Harris-Foulkes estimate   =   -2674.33435078 Ry
     estimated scf accuracy    <          2.0E-11 Ry

     The total energy is the sum of the following terms:

     one-electron contribution =    -824.54166506 Ry
     hartree contribution      =     516.24222261 Ry
     xc contribution           =    -289.92127190 Ry
     ewald contribution        =   -1466.86484660 Ry
     one-center paw contrib.   =    -609.24958671 Ry
     smearing contrib. (-TS)   =       0.00079688 Ry

     convergence has been achieved in  23 iterations

     Forces acting on atoms (Ry/au):

     atom    1 type  1   force =     0.00000531    0.00000000   -0.00000291
     atom    2 type  1   force =    -0.00000531    0.00000000    0.00000291
     atom    3 type  1   force =     0.00000171   -0.00000000   -0.00000272
     atom    4 type  1   force =    -0.00000171    0.00000000    0.00000272
     atom    5 type  1   force =     0.00000000    0.00000000    0.00000000
     atom    6 type  1   force =     0.00000000    0.00000000    0.00000000
     atom    7 type  1   force =     0.00000000    0.00000000    0.00000000
     atom    8 type  1   force =     0.00000000    0.00000000    0.00000000
     atom    9 type  2   force =    -0.00000208    0.00000000    0.00000746
     atom   10 type  2   force =     0.00000208   -0.00000000   -0.00000746
     The non-local contrib.  to forces
     atom    1 type  1   force =     0.00000278    0.00000000   -0.08105141
     atom    2 type  1   force =    -0.00000278    0.00000000    0.08105141
     atom    3 type  1   force =    -0.00000171    0.00000000    0.02412891
     atom    4 type  1   force =     0.00000171    0.00000000   -0.02412891
     atom    5 type  1   force =     0.00000000    0.00000000    0.00000000
     atom    6 type  1   force =     0.00000000    0.00000000    0.00000000
     atom    7 type  1   force =     0.00000000    0.00000000    0.00000000
     atom    8 type  1   force =     0.00000000    0.00000000    0.00000000
     atom    9 type  2   force =    -0.00001538    0.00000000    0.11851427
     atom   10 type  2   force =     0.00001538    0.00000000   -0.11851427
     The ionic contribution  to forces
     atom    1 type  1   force =     0.00207084   -0.00000000   -3.09764835
     atom    2 type  1   force =    -0.00207084   -0.00000000    3.09764835
     atom    3 type  1   force =     0.00165324   -0.00000000    4.18621097
     atom    4 type  1   force =    -0.00165324   -0.00000000   -4.18621097
     atom    5 type  1   force =    -0.00000000   -0.00000000    0.00000000
     atom    6 type  1   force =     0.00000000   -0.00000000   -0.00000000
     atom    7 type  1   force =    -0.00000000   -0.00000000   -0.00000000
     atom    8 type  1   force =     0.00000000   -0.00000000    0.00000000
     atom    9 type  2   force =     0.00065432    0.00000000   -1.65086786
     atom   10 type  2   force =    -0.00065432   -0.00000000    1.65086786
     The local contribution  to forces
     atom    1 type  1   force =    -0.00206915   -0.00000000    3.18155897
     atom    2 type  1   force =     0.00206915   -0.00000000   -3.18155897
     atom    3 type  1   force =    -0.00165005    0.00000000   -4.21004863
     atom    4 type  1   force =     0.00165005    0.00000000    4.21004863
     atom    5 type  1   force =    -0.00000000    0.00000000    0.00000000
     atom    6 type  1   force =     0.00000000    0.00000000    0.00000000
     atom    7 type  1   force =     0.00000000   -0.00000000   -0.00000000
     atom    8 type  1   force =     0.00000000   -0.00000000   -0.00000000
     atom    9 type  2   force =    -0.00064038    0.00000000    1.53362063
     atom   10 type  2   force =     0.00064038    0.00000000   -1.53362063
     The core correction contribution to forces
     atom    1 type  1   force =     0.00000159    0.00000000   -0.00286467
     atom    2 type  1   force =    -0.00000159    0.00000000    0.00286467
     atom    3 type  1   force =     0.00000074    0.00000000   -0.00029396
     atom    4 type  1   force =    -0.00000074    0.00000000    0.00029396
     atom    5 type  1   force =     0.00000000    0.00000000   -0.00000000
     atom    6 type  1   force =    -0.00000000    0.00000000   -0.00000000
     atom    7 type  1   force =     0.00000000    0.00000000    0.00000000
     atom    8 type  1   force =    -0.00000000    0.00000000    0.00000000
     atom    9 type  2   force =     0.00000012   -0.00000000   -0.00125985
     atom   10 type  2   force =    -0.00000012   -0.00000000    0.00125985
     The Hubbard contrib.    to forces
     atom    1 type  1   force =     0.00000000    0.00000000    0.00000000
     atom    2 type  1   force =     0.00000000    0.00000000    0.00000000
     atom    3 type  1   force =     0.00000000    0.00000000    0.00000000
     atom    4 type  1   force =     0.00000000    0.00000000    0.00000000
     atom    5 type  1   force =     0.00000000    0.00000000    0.00000000
     atom    6 type  1   force =     0.00000000    0.00000000    0.00000000
     atom    7 type  1   force =     0.00000000    0.00000000    0.00000000
     atom    8 type  1   force =     0.00000000    0.00000000    0.00000000
     atom    9 type  2   force =     0.00000000    0.00000000    0.00000000
     atom   10 type  2   force =     0.00000000    0.00000000    0.00000000
     The SCF correction term to forces
     atom    1 type  1   force =    -0.00000076   -0.00000000    0.00000254
     atom    2 type  1   force =     0.00000076   -0.00000000   -0.00000254
     atom    3 type  1   force =    -0.00000050   -0.00000000   -0.00000001
     atom    4 type  1   force =     0.00000050    0.00000000    0.00000001
     atom    5 type  1   force =    -0.00000000   -0.00000000    0.00000000
     atom    6 type  1   force =     0.00000000   -0.00000000    0.00000000
     atom    7 type  1   force =     0.00000000   -0.00000000    0.00000000
     atom    8 type  1   force =    -0.00000000   -0.00000000    0.00000000
     atom    9 type  2   force =    -0.00000076    0.00000000    0.00000027
     atom   10 type  2   force =     0.00000076   -0.00000000   -0.00000027

     Total force =     0.000015     Total SCF correction =     0.000004
     SCF correction compared to forces is large: reduce conv_thr to get better values


     entering subroutine stress ...

          total   stress  (Ry/bohr**3)                   (kbar)     P=  300.32
   0.00204717   0.00000000  -0.00000003        301.15      0.00     -0.00
   0.00000000   0.00203864   0.00000000          0.00    299.89      0.00
  -0.00000003   0.00000000   0.00203880         -0.00      0.00    299.92

     kinetic stress (kbar)  88384.28      0.00     -0.01
                                0.00  88432.82      0.00
                               -0.01      0.00  88401.97

     local   stress (kbar)  73286.76     -0.00      0.23
                               -0.00  72557.51     -0.00
                                0.23     -0.00  74921.47

     nonloc. stress (kbar) -65045.03      0.00      0.00
                                0.00 -65040.70      0.00
                                0.00      0.00 -65005.27

     hartree stress (kbar)  41601.15      0.00     -0.09
                                0.00  41918.32     -0.00
                               -0.09     -0.00  40933.15

     exc-cor stress (kbar)  -3259.72     -0.00     -0.00
                               -0.00  -3258.84     -0.00
                               -0.00     -0.00  -3259.47

     corecor stress (kbar) -17013.34     -0.00      0.00
                               -0.00 -17016.09      0.00
                                0.00      0.00 -17014.92

     ewald   stress (kbar)-117652.96     -0.00     -0.14
                               -0.00-117293.12      0.00
                               -0.14      0.00-118677.01

     hubbard stress (kbar)      0.00      0.00      0.00
                                0.00      0.00      0.00
                                0.00      0.00      0.00

     london  stress (kbar)      0.00      0.00      0.00
                                0.00      0.00      0.00
                                0.00      0.00      0.00

     XDM     stress (kbar)      0.00      0.00      0.00
                                0.00      0.00      0.00
                                0.00      0.00      0.00

     dft-nl  stress (kbar)      0.00      0.00      0.00
                                0.00      0.00      0.00
                                0.00      0.00      0.00



     Writing output data file fe4n.save
 
     init_run     :     24.98s CPU     25.61s WALL (       2 calls)
     electrons    :  10853.18s CPU  11376.65s WALL (      20 calls)
     update_pot   :     43.41s CPU     43.58s WALL (      18 calls)
     forces       :     77.20s CPU     78.89s WALL (      20 calls)
     stress       :    188.00s CPU    190.25s WALL (      20 calls)

     Called by init_run:
     wfcinit      :     20.55s CPU     21.09s WALL (       2 calls)
     potinit      :      1.36s CPU      1.37s WALL (       2 calls)

     Called by electrons:
     c_bands      :   9444.67s CPU   9925.99s WALL (     402 calls)
     sum_band     :   1328.54s CPU   1363.21s WALL (     402 calls)
     v_of_rho     :      9.65s CPU     10.26s WALL (     417 calls)
     v_h          :      0.76s CPU      0.77s WALL (     417 calls)
     v_xc         :      9.73s CPU     10.33s WALL (     457 calls)
     newd         :     30.70s CPU     35.95s WALL (     417 calls)
     mix_rho      :      2.34s CPU      2.43s WALL (     402 calls)

     Called by c_bands:
     init_us_2    :     92.67s CPU     97.53s WALL (   90720 calls)
     cegterg      :   9031.61s CPU   9482.74s WALL (   42210 calls)

     Called by sum_band:
     sum_band:bec :      7.28s CPU      7.45s WALL (   44100 calls)
     addusdens    :     41.47s CPU     49.67s WALL (     402 calls)

     Called by *egterg:
     h_psi        :   5384.06s CPU   5563.38s WALL (  137392 calls)
     s_psi        :    313.24s CPU    322.62s WALL (  137392 calls)
     g_psi        :     36.62s CPU     37.43s WALL (   94972 calls)
     cdiaghg      :   1651.89s CPU   1733.94s WALL (  134767 calls)
     cegterg:over :    492.03s CPU    502.46s WALL (   94972 calls)
     cegterg:upda :    466.95s CPU    479.82s WALL (   94972 calls)
     cegterg:last :    233.21s CPU    236.72s WALL (   44334 calls)
     cdiaghg:chol :    103.29s CPU    106.14s WALL (  134767 calls)
     cdiaghg:inve :     57.18s CPU     58.83s WALL (  134767 calls)
     cdiaghg:para :    154.31s CPU    157.97s WALL (  269534 calls)

     Called by h_psi:
     h_psi:vloc   :   4668.06s CPU   4806.01s WALL (  137392 calls)
     h_psi:vnl    :    687.76s CPU    724.12s WALL (  137392 calls)
     add_vuspsi   :    296.56s CPU    311.89s WALL (  137392 calls)

     General routines
     calbec       :    582.34s CPU    609.55s WALL (  191992 calls)
     fft          :      9.65s CPU     10.05s WALL (    7130 calls)
     ffts         :      0.45s CPU      0.46s WALL (     819 calls)
     fftw         :   5046.38s CPU   5186.42s WALL (20424280 calls)
     interpolate  :      1.69s CPU      1.73s WALL (     819 calls)
     davcio       :      0.33s CPU      1.61s WALL (     210 calls)
 
     Parallel routines
     fft_scatter  :   1854.03s CPU   1926.85s WALL (20432229 calls)

     PAW routines
     PAW_pot      :     40.47s CPU     42.01s WALL (     435 calls)
     PAW_symme    :      0.09s CPU      0.09s WALL (     837 calls)
 
     PWSCF        :     3h 6m CPU        3h15m WALL

 
   This run was terminated on:  21:13:28  16Nov2020            

=------------------------------------------------------------------------------=
   JOB DONE.
=------------------------------------------------------------------------------=
