
     Program PWSCF v.5.2.0 starts on 27Oct2020 at 17: 5:22 

     This program is part of the open-source Quantum ESPRESSO suite
     for quantum simulation of materials; please cite
         "P. Giannozzi et al., J. Phys.:Condens. Matter 21 395502 (2009);
          URL http://www.quantum-espresso.org", 
     in publications or presentations arising from this work. More details at
     http://www.quantum-espresso.org/quote

     Parallel version (MPI), running on     6 processors
     R & G space division:  proc/nbgrp/npool/nimage =       6
     Reading input from 11.in

     Current dimensions of program PWSCF are:
     Max number of different atomic species (ntypx) = 10
     Max number of k-points (npk) =  40000
     Max angular momentum in pseudopotentials (lmaxx) =  3

     IMPORTANT: XC functional enforced from input :
     Exchange-correlation      = PBE ( 1  4  3  4 0 0)
     Any further DFT definition will be discarded
     Please, verify this is what you really want

               file Fe_PSEUDO: wavefunction(s)  3P 3D renormalized
               file N_PSEUDO: wavefunction(s)  2S renormalized

     Subspace diagonalization in iterative solution of the eigenvalue problem:
     a serial algorithm will be used

 
     Parallelization info
     --------------------
     sticks:   dense  smooth     PW     G-vecs:    dense   smooth      PW
     Min        1193     433    120                76127    16719    2460
     Max        1194     434    121                76130    16744    2463
     Sum        7161    2601    725               456775   100377   14771
 
     Generating pointlists ...
     new r_m :   0.2063 (alat units)  1.4318 (a.u.) for type    1
     new r_m :   0.2063 (alat units)  1.4318 (a.u.) for type    2


     bravais-lattice index     =            0
     lattice parameter (alat)  =       6.9422  a.u.
     unit-cell volume          =     334.5777 (a.u.)^3
     number of atoms/cell      =            5
     number of atomic types    =            2
     number of electrons       =        69.00
     number of Kohn-Sham states=           42
     kinetic-energy cutoff     =     170.0000  Ry
     charge density cutoff     =    1870.0000  Ry
     convergence threshold     =      1.0E-08
     mixing beta               =       0.7000
     number of iterations used =            8  plain     mixing
     Exchange-correlation      = PBE ( 1  4  3  4 0 0)

     celldm(1)=   6.942230  celldm(2)=   0.000000  celldm(3)=   0.000000
     celldm(4)=   0.000000  celldm(5)=   0.000000  celldm(6)=   0.000000

     crystal axes: (cart. coord. in units of alat)
               a(1) = (   1.000000   0.000000   0.000000 )  
               a(2) = (   0.000000   1.000000   0.000000 )  
               a(3) = (   0.000000   0.000000   1.000000 )  

     reciprocal axes: (cart. coord. in units 2 pi/alat)
               b(1) = (  1.000000  0.000000  0.000000 )  
               b(2) = (  0.000000  1.000000  0.000000 )  
               b(3) = (  0.000000  0.000000  1.000000 )  


     PseudoPot. # 1 for Fe read from file:
     pseudo/Fe_PSEUDO
     MD5 check sum: e30d5f36a6f0cb983ee41abee56170da
     Pseudo is Projector augmented-wave + core cor, Zval = 16.0
     Generated using "atomic" code by A. Dal Corso  v.6.3
     Shape of augmentation charge: PSQ
     Using radial grid of 1191 points,  6 beta functions with: 
                l(1) =   0
                l(2) =   0
                l(3) =   1
                l(4) =   1
                l(5) =   2
                l(6) =   2
     Q(r) pseudized with 0 coefficients 


     PseudoPot. # 2 for  N read from file:
     pseudo/N_PSEUDO
     MD5 check sum: 14c48229446f9f2d411169a3abcbc3fa
     Pseudo is Projector augmented-wave + core cor, Zval =  5.0
     Generated using "atomic" code by A. Dal Corso  v.6.3
     Shape of augmentation charge: PSQ
     Using radial grid of 1085 points,  4 beta functions with: 
                l(1) =   0
                l(2) =   0
                l(3) =   1
                l(4) =   1
     Q(r) pseudized with 0 coefficients 


     atomic species   valence    mass     pseudopotential
        Fe            16.00    55.84500     Fe( 1.00)
        N              5.00    14.00650      N( 1.00)

     Starting magnetic structure 
     atomic species   magnetization
        Fe           0.500
        N           -0.010

     48 Sym. Ops., with inversion, found



   Cartesian axes

     site n.     atom                  positions (alat units)
         1           Fe  tau(   1) = (   0.0000000   0.5000000   0.5000000  )
         2           Fe  tau(   2) = (   0.5000000   0.5000000   0.0000000  )
         3           Fe  tau(   3) = (   0.5000000   0.0000000   0.5000000  )
         4           Fe  tau(   4) = (   0.0000000   0.0000000   0.0000000  )
         5           N   tau(   5) = (   0.5000000   0.5000000   0.5000000  )

     number of k points=    70  Marzari-Vanderbilt smearing, width (Ry)=  0.0050
                       cart. coord. in units 2pi/alat
        k(    1) = (   0.0000000   0.0000000   0.0000000), wk =   0.0013717
        k(    2) = (   0.0000000   0.0000000   0.1111111), wk =   0.0082305
        k(    3) = (   0.0000000   0.0000000   0.2222222), wk =   0.0082305
        k(    4) = (   0.0000000   0.0000000   0.3333333), wk =   0.0082305
        k(    5) = (   0.0000000   0.0000000   0.4444444), wk =   0.0082305
        k(    6) = (   0.0000000   0.1111111   0.1111111), wk =   0.0164609
        k(    7) = (   0.0000000   0.1111111   0.2222222), wk =   0.0329218
        k(    8) = (   0.0000000   0.1111111   0.3333333), wk =   0.0329218
        k(    9) = (   0.0000000   0.1111111   0.4444444), wk =   0.0329218
        k(   10) = (   0.0000000   0.2222222   0.2222222), wk =   0.0164609
        k(   11) = (   0.0000000   0.2222222   0.3333333), wk =   0.0329218
        k(   12) = (   0.0000000   0.2222222   0.4444444), wk =   0.0329218
        k(   13) = (   0.0000000   0.3333333   0.3333333), wk =   0.0164609
        k(   14) = (   0.0000000   0.3333333   0.4444444), wk =   0.0329218
        k(   15) = (   0.0000000   0.4444444   0.4444444), wk =   0.0164609
        k(   16) = (   0.1111111   0.1111111   0.1111111), wk =   0.0109739
        k(   17) = (   0.1111111   0.1111111   0.2222222), wk =   0.0329218
        k(   18) = (   0.1111111   0.1111111   0.3333333), wk =   0.0329218
        k(   19) = (   0.1111111   0.1111111   0.4444444), wk =   0.0329218
        k(   20) = (   0.1111111   0.2222222   0.2222222), wk =   0.0329218
        k(   21) = (   0.1111111   0.2222222   0.3333333), wk =   0.0658436
        k(   22) = (   0.1111111   0.2222222   0.4444444), wk =   0.0658436
        k(   23) = (   0.1111111   0.3333333   0.3333333), wk =   0.0329218
        k(   24) = (   0.1111111   0.3333333   0.4444444), wk =   0.0658436
        k(   25) = (   0.1111111   0.4444444   0.4444444), wk =   0.0329218
        k(   26) = (   0.2222222   0.2222222   0.2222222), wk =   0.0109739
        k(   27) = (   0.2222222   0.2222222   0.3333333), wk =   0.0329218
        k(   28) = (   0.2222222   0.2222222   0.4444444), wk =   0.0329218
        k(   29) = (   0.2222222   0.3333333   0.3333333), wk =   0.0329218
        k(   30) = (   0.2222222   0.3333333   0.4444444), wk =   0.0658436
        k(   31) = (   0.2222222   0.4444444   0.4444444), wk =   0.0329218
        k(   32) = (   0.3333333   0.3333333   0.3333333), wk =   0.0109739
        k(   33) = (   0.3333333   0.3333333   0.4444444), wk =   0.0329218
        k(   34) = (   0.3333333   0.4444444   0.4444444), wk =   0.0329218
        k(   35) = (   0.4444444   0.4444444   0.4444444), wk =   0.0109739
        k(   36) = (   0.0000000   0.0000000   0.0000000), wk =   0.0013717
        k(   37) = (   0.0000000   0.0000000   0.1111111), wk =   0.0082305
        k(   38) = (   0.0000000   0.0000000   0.2222222), wk =   0.0082305
        k(   39) = (   0.0000000   0.0000000   0.3333333), wk =   0.0082305
        k(   40) = (   0.0000000   0.0000000   0.4444444), wk =   0.0082305
        k(   41) = (   0.0000000   0.1111111   0.1111111), wk =   0.0164609
        k(   42) = (   0.0000000   0.1111111   0.2222222), wk =   0.0329218
        k(   43) = (   0.0000000   0.1111111   0.3333333), wk =   0.0329218
        k(   44) = (   0.0000000   0.1111111   0.4444444), wk =   0.0329218
        k(   45) = (   0.0000000   0.2222222   0.2222222), wk =   0.0164609
        k(   46) = (   0.0000000   0.2222222   0.3333333), wk =   0.0329218
        k(   47) = (   0.0000000   0.2222222   0.4444444), wk =   0.0329218
        k(   48) = (   0.0000000   0.3333333   0.3333333), wk =   0.0164609
        k(   49) = (   0.0000000   0.3333333   0.4444444), wk =   0.0329218
        k(   50) = (   0.0000000   0.4444444   0.4444444), wk =   0.0164609
        k(   51) = (   0.1111111   0.1111111   0.1111111), wk =   0.0109739
        k(   52) = (   0.1111111   0.1111111   0.2222222), wk =   0.0329218
        k(   53) = (   0.1111111   0.1111111   0.3333333), wk =   0.0329218
        k(   54) = (   0.1111111   0.1111111   0.4444444), wk =   0.0329218
        k(   55) = (   0.1111111   0.2222222   0.2222222), wk =   0.0329218
        k(   56) = (   0.1111111   0.2222222   0.3333333), wk =   0.0658436
        k(   57) = (   0.1111111   0.2222222   0.4444444), wk =   0.0658436
        k(   58) = (   0.1111111   0.3333333   0.3333333), wk =   0.0329218
        k(   59) = (   0.1111111   0.3333333   0.4444444), wk =   0.0658436
        k(   60) = (   0.1111111   0.4444444   0.4444444), wk =   0.0329218
        k(   61) = (   0.2222222   0.2222222   0.2222222), wk =   0.0109739
        k(   62) = (   0.2222222   0.2222222   0.3333333), wk =   0.0329218
        k(   63) = (   0.2222222   0.2222222   0.4444444), wk =   0.0329218
        k(   64) = (   0.2222222   0.3333333   0.3333333), wk =   0.0329218
        k(   65) = (   0.2222222   0.3333333   0.4444444), wk =   0.0658436
        k(   66) = (   0.2222222   0.4444444   0.4444444), wk =   0.0329218
        k(   67) = (   0.3333333   0.3333333   0.3333333), wk =   0.0109739
        k(   68) = (   0.3333333   0.3333333   0.4444444), wk =   0.0329218
        k(   69) = (   0.3333333   0.4444444   0.4444444), wk =   0.0329218
        k(   70) = (   0.4444444   0.4444444   0.4444444), wk =   0.0109739

     Dense  grid:   456775 G-vectors     FFT dimensions: (  96,  96,  96)

     Smooth grid:   100377 G-vectors     FFT dimensions: (  60,  60,  60)

     Largest allocated arrays     est. size (Mb)     dimensions
        Kohn-Sham Wavefunctions         1.36 Mb     (    2128,   42)
        NL pseudopotentials             2.60 Mb     (    2128,   80)
        Each V/rho on FFT grid          4.50 Mb     (  147456,   2)
        Each G-vector array             0.58 Mb     (   76129)
        G-vector shells                 0.01 Mb     (    1903)
     Largest temporary arrays     est. size (Mb)     dimensions
        Auxiliary wavefunctions         5.46 Mb     (    2128,  168)
        Each subspace H/S matrix        0.43 Mb     (     168,  168)
        Each <psi_i|beta_j> matrix      0.05 Mb     (      80,   42)
        Arrays for rho mixing          18.00 Mb     (  147456,    8)

     Initial potential from superposition of free atoms

     starting charge   68.99837, renormalised to   69.00000
     Starting wfc are   44 randomized atomic wfcs
     Checking if some PAW data can be deallocated... 

     total cpu time spent up to now is       10.8 secs

     per-process dynamical memory:   175.2 Mb

     Self-consistent Calculation

     iteration #  1     ecut=   170.00 Ry     beta=0.70
     Davidson diagonalization with overlap
     ethr =  1.00E-02,  avg # of iterations =  3.1

     negative rho (up, down):  0.000E+00 4.321E-04
 
     Magnetic moment per site:
     atom:    1    charge:   12.7333    magn:    4.0982    constr:    0.0000
     atom:    2    charge:   12.7333    magn:    4.0982    constr:    0.0000
     atom:    3    charge:   12.7333    magn:    4.0982    constr:    0.0000
     atom:    4    charge:   12.6140    magn:    4.1677    constr:    0.0000
     atom:    5    charge:    4.6362    magn:    0.1187    constr:    0.0000

     total cpu time spent up to now is       41.0 secs

     total energy              =   -1344.14361888 Ry
     Harris-Foulkes estimate   =   -1343.44600420 Ry
     estimated scf accuracy    <       2.86603688 Ry

     total magnetization       =    13.88 Bohr mag/cell
     absolute magnetization    =    14.06 Bohr mag/cell

     iteration #  2     ecut=   170.00 Ry     beta=0.70
     Davidson diagonalization with overlap
     ethr =  4.15E-03,  avg # of iterations =  3.3

     negative rho (up, down):  0.000E+00 3.813E-04
 
     Magnetic moment per site:
     atom:    1    charge:   12.7244    magn:    3.8170    constr:    0.0000
     atom:    2    charge:   12.7244    magn:    3.8170    constr:    0.0000
     atom:    3    charge:   12.7244    magn:    3.8170    constr:    0.0000
     atom:    4    charge:   13.0649    magn:    3.5710    constr:    0.0000
     atom:    5    charge:    4.2261    magn:    0.0573    constr:    0.0000

     total cpu time spent up to now is       71.8 secs

     total energy              =   -1343.30262065 Ry
     Harris-Foulkes estimate   =   -1345.74953549 Ry
     estimated scf accuracy    <       8.50820804 Ry

     total magnetization       =     9.38 Bohr mag/cell
     absolute magnetization    =    10.50 Bohr mag/cell

     iteration #  3     ecut=   170.00 Ry     beta=0.70
     Davidson diagonalization with overlap
     ethr =  4.15E-03,  avg # of iterations =  3.5

     negative rho (up, down):  0.000E+00 1.614E-04
 
     Magnetic moment per site:
     atom:    1    charge:   12.8849    magn:    3.4485    constr:    0.0000
     atom:    2    charge:   12.8849    magn:    3.4485    constr:    0.0000
     atom:    3    charge:   12.8849    magn:    3.4485    constr:    0.0000
     atom:    4    charge:   12.8120    magn:    3.0194    constr:    0.0000
     atom:    5    charge:    4.0302    magn:    0.0244    constr:    0.0000

     total cpu time spent up to now is      102.9 secs

     total energy              =   -1343.62316379 Ry
     Harris-Foulkes estimate   =   -1346.18837308 Ry
     estimated scf accuracy    <      25.50211005 Ry

     total magnetization       =     3.80 Bohr mag/cell
     absolute magnetization    =     4.51 Bohr mag/cell

     iteration #  4     ecut=   170.00 Ry     beta=0.70
     Davidson diagonalization with overlap
     ethr =  4.15E-03,  avg # of iterations =  3.2

     negative rho (up, down):  0.000E+00 5.630E-04
 
     Magnetic moment per site:
     atom:    1    charge:   12.7742    magn:    2.2627    constr:    0.0000
     atom:    2    charge:   12.7742    magn:    2.2627    constr:    0.0000
     atom:    3    charge:   12.7742    magn:    2.2627    constr:    0.0000
     atom:    4    charge:   12.7283    magn:    1.8798    constr:    0.0000
     atom:    5    charge:    4.0533    magn:   -0.0486    constr:    0.0000

     total cpu time spent up to now is      132.7 secs

     total energy              =   -1345.02961320 Ry
     Harris-Foulkes estimate   =   -1345.10706877 Ry
     estimated scf accuracy    <       0.54788210 Ry

     total magnetization       =    10.75 Bohr mag/cell
     absolute magnetization    =    11.16 Bohr mag/cell

     iteration #  5     ecut=   170.00 Ry     beta=0.70
     Davidson diagonalization with overlap
     ethr =  7.94E-04,  avg # of iterations =  3.3

     negative rho (up, down):  0.000E+00 3.795E-04
 
     Magnetic moment per site:
     atom:    1    charge:   12.8332    magn:    2.1627    constr:    0.0000
     atom:    2    charge:   12.8332    magn:    2.1627    constr:    0.0000
     atom:    3    charge:   12.8332    magn:    2.1627    constr:    0.0000
     atom:    4    charge:   12.8040    magn:    2.0426    constr:    0.0000
     atom:    5    charge:    4.1100    magn:   -0.0268    constr:    0.0000

     total cpu time spent up to now is      163.8 secs

     total energy              =   -1345.11498580 Ry
     Harris-Foulkes estimate   =   -1345.20259536 Ry
     estimated scf accuracy    <       0.24188775 Ry

     total magnetization       =     9.59 Bohr mag/cell
     absolute magnetization    =     9.95 Bohr mag/cell

     iteration #  6     ecut=   170.00 Ry     beta=0.70
     Davidson diagonalization with overlap
     ethr =  3.51E-04,  avg # of iterations =  3.0

     negative rho (up, down):  0.000E+00 2.724E-04
 
     Magnetic moment per site:
     atom:    1    charge:   12.8271    magn:    2.1146    constr:    0.0000
     atom:    2    charge:   12.8271    magn:    2.1146    constr:    0.0000
     atom:    3    charge:   12.8271    magn:    2.1146    constr:    0.0000
     atom:    4    charge:   12.7930    magn:    2.3702    constr:    0.0000
     atom:    5    charge:    4.1120    magn:    0.0065    constr:    0.0000

     total cpu time spent up to now is      193.8 secs

     total energy              =   -1345.16189400 Ry
     Harris-Foulkes estimate   =   -1345.15765900 Ry
     estimated scf accuracy    <       0.02590300 Ry

     total magnetization       =     9.38 Bohr mag/cell
     absolute magnetization    =     9.72 Bohr mag/cell

     iteration #  7     ecut=   170.00 Ry     beta=0.70
     Davidson diagonalization with overlap
     ethr =  3.75E-05,  avg # of iterations =  1.7

     negative rho (up, down):  0.000E+00 2.726E-04
 
     Magnetic moment per site:
     atom:    1    charge:   12.8277    magn:    1.9568    constr:    0.0000
     atom:    2    charge:   12.8277    magn:    1.9568    constr:    0.0000
     atom:    3    charge:   12.8277    magn:    1.9568    constr:    0.0000
     atom:    4    charge:   12.7726    magn:    2.8108    constr:    0.0000
     atom:    5    charge:    4.1112    magn:    0.0392    constr:    0.0000

     total cpu time spent up to now is      220.6 secs

     total energy              =   -1345.16177143 Ry
     Harris-Foulkes estimate   =   -1345.16365772 Ry
     estimated scf accuracy    <       0.01801033 Ry

     total magnetization       =     9.38 Bohr mag/cell
     absolute magnetization    =     9.71 Bohr mag/cell

     iteration #  8     ecut=   170.00 Ry     beta=0.70
     Davidson diagonalization with overlap
     ethr =  2.61E-05,  avg # of iterations =  2.2

     negative rho (up, down):  0.000E+00 2.651E-04
 
     Magnetic moment per site:
     atom:    1    charge:   12.8309    magn:    1.8621    constr:    0.0000
     atom:    2    charge:   12.8309    magn:    1.8621    constr:    0.0000
     atom:    3    charge:   12.8309    magn:    1.8621    constr:    0.0000
     atom:    4    charge:   12.7752    magn:    2.7249    constr:    0.0000
     atom:    5    charge:    4.1091    magn:    0.0310    constr:    0.0000

     total cpu time spent up to now is      248.0 secs

     total energy              =   -1345.16680045 Ry
     Harris-Foulkes estimate   =   -1345.16582202 Ry
     estimated scf accuracy    <       0.00209161 Ry

     total magnetization       =     9.00 Bohr mag/cell
     absolute magnetization    =     9.35 Bohr mag/cell

     iteration #  9     ecut=   170.00 Ry     beta=0.70
     Davidson diagonalization with overlap
     ethr =  3.03E-06,  avg # of iterations =  2.1

     negative rho (up, down):  0.000E+00 2.839E-04
 
     Magnetic moment per site:
     atom:    1    charge:   12.8287    magn:    1.9952    constr:    0.0000
     atom:    2    charge:   12.8287    magn:    1.9952    constr:    0.0000
     atom:    3    charge:   12.8287    magn:    1.9952    constr:    0.0000
     atom:    4    charge:   12.7741    magn:    2.7575    constr:    0.0000
     atom:    5    charge:    4.1140    magn:    0.0387    constr:    0.0000

     total cpu time spent up to now is      274.5 secs

     total energy              =   -1345.16423315 Ry
     Harris-Foulkes estimate   =   -1345.16762384 Ry
     estimated scf accuracy    <       0.00202470 Ry

     total magnetization       =     8.58 Bohr mag/cell
     absolute magnetization    =     8.96 Bohr mag/cell

     iteration # 10     ecut=   170.00 Ry     beta=0.70
     Davidson diagonalization with overlap
     ethr =  2.93E-06,  avg # of iterations =  1.9

     negative rho (up, down):  0.000E+00 3.281E-04
 
     Magnetic moment per site:
     atom:    1    charge:   12.8273    magn:    2.0787    constr:    0.0000
     atom:    2    charge:   12.8273    magn:    2.0787    constr:    0.0000
     atom:    3    charge:   12.8273    magn:    2.0787    constr:    0.0000
     atom:    4    charge:   12.7751    magn:    2.7410    constr:    0.0000
     atom:    5    charge:    4.1174    magn:    0.0452    constr:    0.0000

     total cpu time spent up to now is      301.5 secs

     total energy              =   -1345.16404556 Ry
     Harris-Foulkes estimate   =   -1345.16568490 Ry
     estimated scf accuracy    <       0.00219926 Ry

     total magnetization       =     9.10 Bohr mag/cell
     absolute magnetization    =     9.44 Bohr mag/cell

     iteration # 11     ecut=   170.00 Ry     beta=0.70
     Davidson diagonalization with overlap
     ethr =  2.93E-06,  avg # of iterations =  1.7

     negative rho (up, down):  0.000E+00 2.312E-04
 
     Magnetic moment per site:
     atom:    1    charge:   12.8340    magn:    1.7227    constr:    0.0000
     atom:    2    charge:   12.8340    magn:    1.7227    constr:    0.0000
     atom:    3    charge:   12.8340    magn:    1.7227    constr:    0.0000
     atom:    4    charge:   12.7751    magn:    2.6957    constr:    0.0000
     atom:    5    charge:    4.1042    magn:    0.0139    constr:    0.0000

     total cpu time spent up to now is      327.7 secs

     total energy              =   -1345.16057245 Ry
     Harris-Foulkes estimate   =   -1345.16453103 Ry
     estimated scf accuracy    <       0.00283634 Ry

     total magnetization       =     9.33 Bohr mag/cell
     absolute magnetization    =     9.66 Bohr mag/cell

     iteration # 12     ecut=   170.00 Ry     beta=0.70
     Davidson diagonalization with overlap
     ethr =  2.93E-06,  avg # of iterations =  3.1

     negative rho (up, down):  0.000E+00 1.718E-04
 
     Magnetic moment per site:
     atom:    1    charge:   12.8414    magn:    1.3160    constr:    0.0000
     atom:    2    charge:   12.8414    magn:    1.3160    constr:    0.0000
     atom:    3    charge:   12.8414    magn:    1.3160    constr:    0.0000
     atom:    4    charge:   12.7743    magn:    2.6496    constr:    0.0000
     atom:    5    charge:    4.0881    magn:   -0.0230    constr:    0.0000

     total cpu time spent up to now is      359.2 secs

     total energy              =   -1345.16112992 Ry
     Harris-Foulkes estimate   =   -1345.16978019 Ry
     estimated scf accuracy    <       0.00121190 Ry

     total magnetization       =     8.19 Bohr mag/cell
     absolute magnetization    =     8.58 Bohr mag/cell

     iteration # 13     ecut=   170.00 Ry     beta=0.70
     Davidson diagonalization with overlap
     ethr =  1.76E-06,  avg # of iterations =  3.4

     negative rho (up, down):  0.000E+00 1.692E-04
 
     Magnetic moment per site:
     atom:    1    charge:   12.8436    magn:    1.2119    constr:    0.0000
     atom:    2    charge:   12.8436    magn:    1.2119    constr:    0.0000
     atom:    3    charge:   12.8436    magn:    1.2119    constr:    0.0000
     atom:    4    charge:   12.7742    magn:    2.6454    constr:    0.0000
     atom:    5    charge:    4.0836    magn:   -0.0333    constr:    0.0000

     total cpu time spent up to now is      395.8 secs

     total energy              =   -1345.16897807 Ry
     Harris-Foulkes estimate   =   -1345.17042334 Ry
     estimated scf accuracy    <       0.00058861 Ry

     total magnetization       =     7.22 Bohr mag/cell
     absolute magnetization    =     7.60 Bohr mag/cell

     iteration # 14     ecut=   170.00 Ry     beta=0.70
     Davidson diagonalization with overlap
     ethr =  8.53E-07,  avg # of iterations =  2.7

     negative rho (up, down):  0.000E+00 1.722E-04
 
     Magnetic moment per site:
     atom:    1    charge:   12.8425    magn:    1.2861    constr:    0.0000
     atom:    2    charge:   12.8425    magn:    1.2861    constr:    0.0000
     atom:    3    charge:   12.8425    magn:    1.2861    constr:    0.0000
     atom:    4    charge:   12.7743    magn:    2.6531    constr:    0.0000
     atom:    5    charge:    4.0855    magn:   -0.0280    constr:    0.0000

     total cpu time spent up to now is      424.6 secs

     total energy              =   -1345.16993585 Ry
     Harris-Foulkes estimate   =   -1345.16964807 Ry
     estimated scf accuracy    <       0.00130579 Ry

     total magnetization       =     6.97 Bohr mag/cell
     absolute magnetization    =     7.34 Bohr mag/cell

     iteration # 15     ecut=   170.00 Ry     beta=0.70
     Davidson diagonalization with overlap
     ethr =  8.53E-07,  avg # of iterations =  2.1

     negative rho (up, down):  0.000E+00 1.731E-04
 
     Magnetic moment per site:
     atom:    1    charge:   12.8430    magn:    1.2770    constr:    0.0000
     atom:    2    charge:   12.8430    magn:    1.2770    constr:    0.0000
     atom:    3    charge:   12.8430    magn:    1.2770    constr:    0.0000
     atom:    4    charge:   12.7748    magn:    2.6616    constr:    0.0000
     atom:    5    charge:    4.0845    magn:   -0.0329    constr:    0.0000

     total cpu time spent up to now is      450.7 secs

     total energy              =   -1345.17030661 Ry
     Harris-Foulkes estimate   =   -1345.17028539 Ry
     estimated scf accuracy    <       0.00078522 Ry

     total magnetization       =     7.16 Bohr mag/cell
     absolute magnetization    =     7.53 Bohr mag/cell

     iteration # 16     ecut=   170.00 Ry     beta=0.70
     Davidson diagonalization with overlap
     ethr =  8.53E-07,  avg # of iterations =  1.0

     negative rho (up, down):  0.000E+00 1.947E-04
 
     Magnetic moment per site:
     atom:    1    charge:   12.8388    magn:    1.4976    constr:    0.0000
     atom:    2    charge:   12.8388    magn:    1.4976    constr:    0.0000
     atom:    3    charge:   12.8388    magn:    1.4976    constr:    0.0000
     atom:    4    charge:   12.7744    magn:    2.6904    constr:    0.0000
     atom:    5    charge:    4.0905    magn:   -0.0200    constr:    0.0000

     total cpu time spent up to now is      475.5 secs

     total energy              =   -1345.16768131 Ry
     Harris-Foulkes estimate   =   -1345.17032362 Ry
     estimated scf accuracy    <       0.00085041 Ry

     total magnetization       =     7.15 Bohr mag/cell
     absolute magnetization    =     7.51 Bohr mag/cell

     iteration # 17     ecut=   170.00 Ry     beta=0.70
     Davidson diagonalization with overlap
     ethr =  8.53E-07,  avg # of iterations =  3.1

     negative rho (up, down):  0.000E+00 1.949E-04
 
     Magnetic moment per site:
     atom:    1    charge:   12.8385    magn:    1.5056    constr:    0.0000
     atom:    2    charge:   12.8385    magn:    1.5056    constr:    0.0000
     atom:    3    charge:   12.8385    magn:    1.5056    constr:    0.0000
     atom:    4    charge:   12.7743    magn:    2.6868    constr:    0.0000
     atom:    5    charge:    4.0912    magn:   -0.0180    constr:    0.0000

     total cpu time spent up to now is      509.4 secs

     total energy              =   -1345.17084343 Ry
     Harris-Foulkes estimate   =   -1345.17085705 Ry
     estimated scf accuracy    <       0.00097084 Ry

     total magnetization       =     7.74 Bohr mag/cell
     absolute magnetization    =     8.08 Bohr mag/cell

     iteration # 18     ecut=   170.00 Ry     beta=0.70
     Davidson diagonalization with overlap
     ethr =  8.53E-07,  avg # of iterations =  1.0

     negative rho (up, down):  0.000E+00 1.947E-04
 
     Magnetic moment per site:
     atom:    1    charge:   12.8364    magn:    1.5451    constr:    0.0000
     atom:    2    charge:   12.8364    magn:    1.5451    constr:    0.0000
     atom:    3    charge:   12.8364    magn:    1.5451    constr:    0.0000
     atom:    4    charge:   12.7739    magn:    2.6671    constr:    0.0000
     atom:    5    charge:    4.0955    magn:   -0.0048    constr:    0.0000

     total cpu time spent up to now is      534.5 secs

     total energy              =   -1345.17067917 Ry
     Harris-Foulkes estimate   =   -1345.17084928 Ry
     estimated scf accuracy    <       0.00076343 Ry

     total magnetization       =     7.75 Bohr mag/cell
     absolute magnetization    =     8.10 Bohr mag/cell

     iteration # 19     ecut=   170.00 Ry     beta=0.70
     Davidson diagonalization with overlap
     ethr =  8.53E-07,  avg # of iterations =  2.0

     negative rho (up, down):  0.000E+00 1.927E-04
 
     Magnetic moment per site:
     atom:    1    charge:   12.8367    magn:    1.5354    constr:    0.0000
     atom:    2    charge:   12.8367    magn:    1.5354    constr:    0.0000
     atom:    3    charge:   12.8367    magn:    1.5354    constr:    0.0000
     atom:    4    charge:   12.7739    magn:    2.6676    constr:    0.0000
     atom:    5    charge:    4.0950    magn:   -0.0058    constr:    0.0000

     total cpu time spent up to now is      560.4 secs

     total energy              =   -1345.17085145 Ry
     Harris-Foulkes estimate   =   -1345.17083171 Ry
     estimated scf accuracy    <       0.00011847 Ry

     total magnetization       =     7.83 Bohr mag/cell
     absolute magnetization    =     8.18 Bohr mag/cell

     iteration # 20     ecut=   170.00 Ry     beta=0.70
     Davidson diagonalization with overlap
     ethr =  1.72E-07,  avg # of iterations =  1.1

     negative rho (up, down):  0.000E+00 1.803E-04
 
     Magnetic moment per site:
     atom:    1    charge:   12.8369    magn:    1.4840    constr:    0.0000
     atom:    2    charge:   12.8369    magn:    1.4840    constr:    0.0000
     atom:    3    charge:   12.8369    magn:    1.4840    constr:    0.0000
     atom:    4    charge:   12.7735    magn:    2.6511    constr:    0.0000
     atom:    5    charge:    4.0949    magn:   -0.0029    constr:    0.0000

     total cpu time spent up to now is      585.5 secs

     total energy              =   -1345.17073203 Ry
     Harris-Foulkes estimate   =   -1345.17085912 Ry
     estimated scf accuracy    <       0.00013073 Ry

     total magnetization       =     7.81 Bohr mag/cell
     absolute magnetization    =     8.16 Bohr mag/cell

     iteration # 21     ecut=   170.00 Ry     beta=0.70
     Davidson diagonalization with overlap
     ethr =  1.72E-07,  avg # of iterations =  2.9

     negative rho (up, down):  0.000E+00 1.808E-04
 
     Magnetic moment per site:
     atom:    1    charge:   12.8371    magn:    1.4841    constr:    0.0000
     atom:    2    charge:   12.8371    magn:    1.4841    constr:    0.0000
     atom:    3    charge:   12.8371    magn:    1.4841    constr:    0.0000
     atom:    4    charge:   12.7736    magn:    2.6529    constr:    0.0000
     atom:    5    charge:    4.0947    magn:   -0.0039    constr:    0.0000

     total cpu time spent up to now is      615.3 secs

     total energy              =   -1345.17093261 Ry
     Harris-Foulkes estimate   =   -1345.17093145 Ry
     estimated scf accuracy    <       0.00000726 Ry

     total magnetization       =     7.67 Bohr mag/cell
     absolute magnetization    =     8.02 Bohr mag/cell

     iteration # 22     ecut=   170.00 Ry     beta=0.70
     Davidson diagonalization with overlap
     ethr =  1.05E-08,  avg # of iterations =  2.0

     negative rho (up, down):  0.000E+00 1.817E-04
 
     Magnetic moment per site:
     atom:    1    charge:   12.8374    magn:    1.4851    constr:    0.0000
     atom:    2    charge:   12.8374    magn:    1.4851    constr:    0.0000
     atom:    3    charge:   12.8374    magn:    1.4851    constr:    0.0000
     atom:    4    charge:   12.7739    magn:    2.6547    constr:    0.0000
     atom:    5    charge:    4.0945    magn:   -0.0046    constr:    0.0000

     total cpu time spent up to now is      641.2 secs

     total energy              =   -1345.17093266 Ry
     Harris-Foulkes estimate   =   -1345.17093337 Ry
     estimated scf accuracy    <       0.00000405 Ry

     total magnetization       =     7.67 Bohr mag/cell
     absolute magnetization    =     8.02 Bohr mag/cell

     iteration # 23     ecut=   170.00 Ry     beta=0.70
     Davidson diagonalization with overlap
     ethr =  5.87E-09,  avg # of iterations =  2.4

     negative rho (up, down):  0.000E+00 1.818E-04
 
     Magnetic moment per site:
     atom:    1    charge:   12.8373    magn:    1.4869    constr:    0.0000
     atom:    2    charge:   12.8373    magn:    1.4869    constr:    0.0000
     atom:    3    charge:   12.8373    magn:    1.4869    constr:    0.0000
     atom:    4    charge:   12.7738    magn:    2.6539    constr:    0.0000
     atom:    5    charge:    4.0947    magn:   -0.0038    constr:    0.0000

     total cpu time spent up to now is      668.7 secs

     total energy              =   -1345.17093388 Ry
     Harris-Foulkes estimate   =   -1345.17093412 Ry
     estimated scf accuracy    <       0.00000116 Ry

     total magnetization       =     7.68 Bohr mag/cell
     absolute magnetization    =     8.03 Bohr mag/cell

     iteration # 24     ecut=   170.00 Ry     beta=0.70
     Davidson diagonalization with overlap
     ethr =  1.69E-09,  avg # of iterations =  2.0

     negative rho (up, down):  0.000E+00 1.817E-04
 
     Magnetic moment per site:
     atom:    1    charge:   12.8373    magn:    1.4867    constr:    0.0000
     atom:    2    charge:   12.8373    magn:    1.4867    constr:    0.0000
     atom:    3    charge:   12.8373    magn:    1.4867    constr:    0.0000
     atom:    4    charge:   12.7738    magn:    2.6540    constr:    0.0000
     atom:    5    charge:    4.0947    magn:   -0.0039    constr:    0.0000

     total cpu time spent up to now is      694.6 secs

     total energy              =   -1345.17093420 Ry
     Harris-Foulkes estimate   =   -1345.17093426 Ry
     estimated scf accuracy    <       0.00000015 Ry

     total magnetization       =     7.68 Bohr mag/cell
     absolute magnetization    =     8.03 Bohr mag/cell

     iteration # 25     ecut=   170.00 Ry     beta=0.70
     Davidson diagonalization with overlap
     ethr =  2.12E-10,  avg # of iterations =  2.2

     negative rho (up, down):  0.000E+00 1.817E-04
 
     Magnetic moment per site:
     atom:    1    charge:   12.8373    magn:    1.4874    constr:    0.0000
     atom:    2    charge:   12.8373    magn:    1.4874    constr:    0.0000
     atom:    3    charge:   12.8373    magn:    1.4874    constr:    0.0000
     atom:    4    charge:   12.7738    magn:    2.6538    constr:    0.0000
     atom:    5    charge:    4.0947    magn:   -0.0037    constr:    0.0000

     total cpu time spent up to now is      721.8 secs

     total energy              =   -1345.17093421 Ry
     Harris-Foulkes estimate   =   -1345.17093426 Ry
     estimated scf accuracy    <       0.00000018 Ry

     total magnetization       =     7.68 Bohr mag/cell
     absolute magnetization    =     8.03 Bohr mag/cell

     iteration # 26     ecut=   170.00 Ry     beta=0.70
     Davidson diagonalization with overlap
     ethr =  2.12E-10,  avg # of iterations =  2.0

     negative rho (up, down):  0.000E+00 1.817E-04
 
     Magnetic moment per site:
     atom:    1    charge:   12.8373    magn:    1.4875    constr:    0.0000
     atom:    2    charge:   12.8373    magn:    1.4875    constr:    0.0000
     atom:    3    charge:   12.8373    magn:    1.4875    constr:    0.0000
     atom:    4    charge:   12.7738    magn:    2.6538    constr:    0.0000
     atom:    5    charge:    4.0948    magn:   -0.0036    constr:    0.0000

     total cpu time spent up to now is      747.7 secs

     End of self-consistent calculation

 ------ SPIN UP ------------


          k = 0.0000 0.0000 0.0000 ( 12533 PWs)   bands (ev):

   -69.9378 -69.2601 -69.2057 -69.2057 -35.9987 -35.9987 -35.9987 -35.6162
   -35.6162 -35.6162 -35.1591 -35.1591 -35.1591 -35.1524 -35.1524 -35.1524
     0.3455  11.4281  13.3303  13.3303  13.3303  13.8395  13.8395  14.1049
    14.1049  14.1049  16.0921  16.0921  16.0921  17.1983  17.1983  17.8460
    17.8460  18.3982  18.3982  18.3982  18.4658  18.4658  18.4658  18.4674
    21.8874  23.7552

          k = 0.0000 0.0000 0.1111 ( 12537 PWs)   bands (ev):

   -69.9377 -69.2587 -69.2072 -69.2057 -35.9977 -35.9977 -35.9973 -35.6150
   -35.6150 -35.6140 -35.1601 -35.1601 -35.1593 -35.1573 -35.1536 -35.1536
     0.4152  11.4854  12.9271  13.1103  13.1103  13.9188  13.9305  14.1572
    14.3440  14.3440  16.0275  16.1461  16.1461  17.2214  17.2572  17.8145
    17.8701  18.3138  18.3138  18.3981  18.3981  18.3983  18.4063  18.4646
    21.9634  23.2362

          k = 0.0000 0.0000 0.2222 ( 12549 PWs)   bands (ev):

   -69.9374 -69.2547 -69.2113 -69.2057 -35.9952 -35.9952 -35.9939 -35.6120
   -35.6120 -35.6080 -35.1699 -35.1629 -35.1629 -35.1601 -35.1565 -35.1565
     0.6002  11.3377  12.5042  12.7672  12.7672  14.0810  14.1353  14.3089
    14.7508  14.7508  15.8448  16.2721  16.2721  17.1942  17.2857  17.7243
    17.7686  17.9542  17.9542  18.2393  18.3987  18.4015  18.4015  18.4619
    22.1774  22.5168

          k = 0.0000 0.0000 0.3333 ( 12553 PWs)   bands (ev):

   -69.9371 -69.2491 -69.2173 -69.2056 -35.9923 -35.9923 -35.9900 -35.6085
   -35.6085 -35.6005 -35.1848 -35.1666 -35.1666 -35.1609 -35.1593 -35.1593
     0.8280  10.6696  12.4972  12.4972  12.8459  14.1975  14.4172  14.5422
    15.1426  15.1426  15.5760  16.3645  16.3645  16.9836  17.3212  17.3615
    17.5815  17.5815  17.6125  18.0171  18.3991  18.4145  18.4145  18.4591
    22.0441  22.5715

          k = 0.0000 0.0000 0.4444 ( 12544 PWs)   bands (ev):

   -69.9369 -69.2437 -69.2228 -69.2056 -35.9905 -35.9905 -35.9875 -35.6061
   -35.6061 -35.5952 -35.1949 -35.1693 -35.1693 -35.1615 -35.1610 -35.1610
     0.9888  10.1828  12.3530  12.3530  13.4006  14.1247  14.6316  14.8078
    15.2872  15.4348  15.4348  16.3333  16.3333  16.7319  16.9438  17.3461
    17.3743  17.3743  17.6399  17.8044  18.3994  18.4297  18.4297  18.4574
    21.9108  22.7893

          k = 0.0000 0.1111 0.1111 ( 12557 PWs)   bands (ev):

   -69.9376 -69.2573 -69.2079 -69.2064 -35.9981 -35.9968 -35.9951 -35.6261
   -35.6138 -35.5997 -35.1704 -35.1610 -35.1606 -35.1574 -35.1549 -35.1486
     0.4849  11.5393  12.6985  12.8568  12.9537  13.9960  14.0038  14.2123
    14.4870  14.5135  16.0039  16.1627  16.1925  17.2487  17.2727  17.7259
    17.7832  18.2260  18.2639  18.3180  18.3243  18.4101  18.4789  18.5425
    22.0240  23.4380

          k = 0.0000 0.1111 0.2222 ( 12548 PWs)   bands (ev):

   -69.9373 -69.2535 -69.2116 -69.2067 -35.9965 -35.9943 -35.9918 -35.6337
   -35.6106 -35.5837 -35.1857 -35.1656 -35.1638 -35.1585 -35.1579 -35.1442
     0.6702  11.3589  12.2604  12.6629  12.6764  14.1571  14.2066  14.3623
    14.8143  14.8588  15.8417  16.2813  16.2889  17.1597  17.3234  17.4380
    17.5842  17.9114  18.1399  18.1982  18.2419  18.3838  18.5582  18.6823
    22.2026  22.6701

          k = 0.0000 0.1111 0.3333 ( 12541 PWs)   bands (ev):

   -69.9371 -69.2479 -69.2174 -69.2067 -35.9937 -35.9915 -35.9892 -35.6374
   -35.6069 -35.5697 -35.2010 -35.1706 -35.1674 -35.1609 -35.1605 -35.1420
     0.8986  10.6614  12.1384  12.4160  12.9458  14.2826  14.4858  14.5913
    15.1750  15.2145  15.5803  16.2916  16.3934  16.9293  17.0976  17.2658
    17.4903  17.5576  17.8564  18.0734  18.1796  18.3774  18.6299  18.6758
    22.2616  22.4503

          k = 0.0000 0.1111 0.4444 ( 12514 PWs)   bands (ev):

   -69.9369 -69.2426 -69.2229 -69.2067 -35.9912 -35.9897 -35.9882 -35.6387
   -35.6045 -35.5613 -35.2107 -35.1738 -35.1700 -35.1627 -35.1619 -35.1411
     1.0599  10.1713  12.0376  12.2806  13.4693  14.2193  14.7010  14.8576
    15.2906  15.4587  15.4814  16.1376  16.3912  16.6629  16.8639  17.2555
    17.3555  17.4656  17.7079  17.8995  18.1434  18.3753  18.6539  18.6758
    22.1430  22.6122

          k = 0.0000 0.2222 0.2222 ( 12528 PWs)   bands (ev):

   -69.9371 -69.2498 -69.2133 -69.2088 -35.9968 -35.9921 -35.9897 -35.6522
   -35.6071 -35.5582 -35.2071 -35.1682 -35.1661 -35.1615 -35.1602 -35.1306
     0.8565  11.2947  11.5675  12.4407  12.7895  14.3576  14.3836  14.5050
    15.0142  15.1102  15.7598  16.2749  16.3628  17.0226  17.0278  17.3104
    17.4586  17.7425  18.0344  18.0885  18.2578  18.3350  18.7085  18.9943
    22.1160  22.9985

          k = 0.0000 0.2222 0.3333 ( 12527 PWs)   bands (ev):

   -69.9369 -69.2445 -69.2179 -69.2097 -35.9954 -35.9896 -35.9890 -35.6647
   -35.6030 -35.5375 -35.2251 -35.1710 -35.1693 -35.1651 -35.1625 -35.1216
     1.0864  10.6284  11.3677  12.2332  13.1802  14.5163  14.6612  14.7162
    15.2787  15.3905  15.5580  16.0662  16.4959  16.7577  16.8085  17.1021
    17.4755  17.6358  17.8029  17.9579  18.1968  18.3521  18.8359  19.0293
    21.9456  22.8235

          k = 0.0000 0.2222 0.4444 ( 12515 PWs)   bands (ev):

   -69.9367 -69.2394 -69.2229 -69.2099 -35.9930 -35.9900 -35.9879 -35.6707
   -35.6003 -35.5258 -35.2355 -35.1729 -35.1719 -35.1670 -35.1641 -35.1172
     1.2491  10.1368  11.3031  12.1145  13.6798  14.4692  14.8909  14.9679
    15.2994  15.4957  15.5995  15.8226  16.5517  16.5535  16.6113  17.0967
    17.2979  17.5287  17.8749  17.8799  18.1777  18.2115  18.9125  18.9630
    21.9127  22.7457

          k = 0.0000 0.3333 0.3333 ( 12518 PWs)   bands (ev):

   -69.9367 -69.2396 -69.2195 -69.2131 -35.9958 -35.9903 -35.9873 -35.6841
   -35.5984 -35.5122 -35.2447 -35.1718 -35.1710 -35.1696 -35.1650 -35.1068
     1.3189  10.5582  10.5958  12.0537  13.5742  14.8384  14.8435  14.8883
    15.4139  15.4603  15.5950  15.7406  16.5551  16.6481  16.6579  16.8988
    17.3283  17.6092  17.7583  17.9054  18.0438  18.5480  19.0044  19.1745
    21.2661  23.3556

          k = 0.0000 0.3333 0.4444 ( 12517 PWs)   bands (ev):

   -69.9366 -69.2345 -69.2231 -69.2147 -35.9947 -35.9925 -35.9858 -35.6941
   -35.5953 -35.4982 -35.2555 -35.1741 -35.1720 -35.1709 -35.1668 -35.0991
     1.4838  10.0900  10.5351  11.9483  14.0224  14.7992  15.0850  15.1283
    15.2954  15.5099  15.5583  15.7465  16.4017  16.4740  16.7779  16.8317
    17.2033  17.3999  17.6209  17.9741  18.1740  18.5810  19.1030  19.1299
    20.9079  23.4488

          k = 0.0000 0.4444 0.4444 ( 12492 PWs)   bands (ev):

   -69.9365 -69.2290 -69.2236 -69.2198 -35.9954 -35.9945 -35.9844 -35.7064
   -35.5921 -35.4830 -35.2665 -35.1755 -35.1753 -35.1696 -35.1687 -35.0895
     1.6507  10.0557  10.0562  11.8496  14.3681  15.0248  15.1860  15.2540
    15.2590  15.4091  15.5746  15.8592  16.3139  16.3957  16.5770  16.9870
    17.1138  17.2348  17.4097  17.8578  18.3841  18.9443  19.1751  19.2131
    20.1305  23.9982

          k = 0.1111 0.1111 0.1111 ( 12563 PWs)   bands (ev):

   -69.9375 -69.2560 -69.2078 -69.2078 -35.9974 -35.9974 -35.9928 -35.6383
   -35.5985 -35.5985 -35.1734 -35.1697 -35.1697 -35.1506 -35.1488 -35.1488
     0.5548  11.5893  12.5636  12.5636  12.8355  14.0719  14.0719  14.3896
    14.3896  14.7341  15.9886  16.2023  16.2023  17.2669  17.2669  17.6643
    17.6643  17.9912  18.1233  18.3442  18.3442  18.4198  18.6410  18.6410
    22.0742  23.5625

          k = 0.1111 0.1111 0.2222 ( 12529 PWs)   bands (ev):

   -69.9373 -69.2522 -69.2118 -69.2078 -35.9963 -35.9956 -35.9896 -35.6505
   -35.5956 -35.5781 -35.1900 -35.1801 -35.1714 -35.1509 -35.1459 -35.1436
     0.7404  11.3710  12.1431  12.2978  12.7588  14.2325  14.2776  14.4625
    14.7621  15.0133  15.8442  16.2848  16.2953  17.1762  17.2942  17.3840
    17.4079  17.7635  17.9270  18.2176  18.3453  18.3563  18.8020  18.8328
    22.2208  22.8348

          k = 0.1111 0.1111 0.3333 ( 12526 PWs)   bands (ev):

   -69.9370 -69.2468 -69.2175 -69.2078 -35.9936 -35.9935 -35.9876 -35.6580
   -35.5923 -35.5607 -35.2062 -35.1887 -35.1725 -35.1527 -35.1466 -35.1395
     0.9694  10.6461  12.0640  12.0768  13.0382  14.3638  14.5548  14.6649
    15.1710  15.2804  15.5908  16.2781  16.3444  16.9168  17.0709  17.1117
    17.4310  17.6063  17.7042  18.0897  18.2502  18.3341  18.6811  18.9924
    22.4188  22.4434

          k = 0.1111 0.1111 0.4444 ( 12521 PWs)   bands (ev):

   -69.9368 -69.2415 -69.2229 -69.2078 -35.9922 -35.9903 -35.9879 -35.6613
   -35.5900 -35.5505 -35.2163 -35.1937 -35.1731 -35.1538 -35.1481 -35.1376
     1.1312  10.1542  11.9340  12.0077  13.5364  14.3073  14.7710  14.9231
    15.3010  15.4549  15.5305  16.0757  16.2782  16.6259  16.9675  17.0971
    17.3341  17.4991  17.7092  17.9302  18.1844  18.3238  18.5239  19.0839
    22.3368  22.5622

          k = 0.1111 0.2222 0.2222 ( 12537 PWs)   bands (ev):

   -69.9371 -69.2487 -69.2133 -69.2100 -35.9968 -35.9946 -35.9872 -35.6706
   -35.5864 -35.5573 -35.2081 -35.1851 -35.1816 -35.1465 -35.1456 -35.1309
     0.9272  11.2970  11.4890  12.0698  12.8955  14.4281  14.4565  14.6312
    14.9390  15.2088  15.7702  16.2697  16.3402  17.0317  17.0918  17.2142
    17.3958  17.5442  17.7222  18.2480  18.2498  18.3217  19.0777  19.1105
    22.1895  23.1064

          k = 0.1111 0.2222 0.3333 ( 12525 PWs)   bands (ev):

   -69.9368 -69.2436 -69.2179 -69.2106 -35.9957 -35.9932 -35.9865 -35.6849
   -35.5820 -35.5360 -35.2254 -35.1938 -35.1838 -35.1474 -35.1442 -35.1217
     1.1580  10.5980  11.3112  11.9147  13.2656  14.5775  14.7281  14.8336
    15.2638  15.3765  15.5837  16.1023  16.3721  16.7652  16.9126  17.0314
    17.4420  17.4782  17.6146  18.1520  18.1976  18.2545  18.9967  19.3338
    22.0569  22.8861

          k = 0.1111 0.2222 0.4444 ( 12540 PWs)   bands (ev):

   -69.9367 -69.2385 -69.2230 -69.2108 -35.9941 -35.9919 -35.9874 -35.6920
   -35.5794 -35.5235 -35.2355 -35.1994 -35.1842 -35.1482 -35.1443 -35.1171
     1.3215  10.1072  11.2411  11.8216  13.7358  14.5292  14.9595  15.0710
    15.3033  15.4785  15.6038  15.8649  16.2989  16.5434  16.8770  16.9675
    17.3024  17.4481  17.7964  18.0502  18.1009  18.2333  18.7429  19.4753
    22.0152  22.8357

          k = 0.1111 0.3333 0.3333 ( 12528 PWs)   bands (ev):

   -69.9367 -69.2388 -69.2195 -69.2139 -35.9965 -35.9932 -35.9866 -35.7050
   -35.5765 -35.5118 -35.2436 -35.1952 -35.1924 -35.1456 -35.1442 -35.1069
     1.3917  10.5242  10.5392  11.7567  13.6360  14.8225  14.9038  15.0687
    15.3297  15.4720  15.5695  15.9049  16.3666  16.6361  16.7526  16.9584
    17.3278  17.3353  17.7954  18.0113  18.1088  18.3395  19.2235  19.4680
    21.3617  23.2564

          k = 0.1111 0.3333 0.4444 ( 12508 PWs)   bands (ev):

   -69.9365 -69.2339 -69.2231 -69.2153 -35.9959 -35.9941 -35.9870 -35.7156
   -35.5735 -35.4977 -35.2539 -35.1996 -35.1937 -35.1454 -35.1441 -35.0991
     1.5577  10.0487  10.4832  11.6623  14.0410  14.7949  15.0910  15.2863
    15.2944  15.5093  15.5623  15.9174  16.2897  16.4461  16.7281  16.9209
    17.2028  17.3108  17.8566  17.9765  18.0304  18.4889  19.0170  19.6594
    20.9539  23.3825

          k = 0.1111 0.4444 0.4444 ( 12499 PWs)   bands (ev):

   -69.9364 -69.2287 -69.2236 -69.2201 -35.9966 -35.9959 -35.9868 -35.7282
   -35.5703 -35.4829 -35.2641 -35.1994 -35.1990 -35.1444 -35.1441 -35.0895
     1.7260  10.0073  10.0093  11.5674  14.3231  14.9817  15.0453  15.2045
    15.5461  15.5518  15.6299  16.0535  16.2558  16.3617  16.5045  16.9237
    17.1741  17.2215  17.6746  17.9344  18.0856  18.8779  19.1704  19.7001
    20.1197  23.7364

          k = 0.2222 0.2222 0.2222 ( 12524 PWs)   bands (ev):

   -69.9369 -69.2455 -69.2133 -69.2133 -35.9967 -35.9967 -35.9855 -35.6963
   -35.5550 -35.5550 -35.2156 -35.1983 -35.1983 -35.1334 -35.1334 -35.1293
     1.1156  11.2708  11.3111  11.3111  13.1133  14.6223  14.6223  14.9419
    14.9419  15.3041  15.7316  16.2794  16.2794  16.9692  16.9692  17.2823
    17.2823  17.2922  17.4271  18.2284  18.2284  18.3817  19.4147  19.4147
    22.2835  23.0621

          k = 0.2222 0.2222 0.3333 ( 12517 PWs)   bands (ev):

   -69.9367 -69.2408 -69.2181 -69.2132 -35.9966 -35.9966 -35.9861 -35.7154
   -35.5523 -35.5290 -35.2297 -35.2112 -35.2010 -35.1334 -35.1256 -35.1198
     1.3490  10.5168  11.1353  11.2354  13.4788  14.7338  14.8919  15.1006
    15.2917  15.2956  15.6688  16.1479  16.2340  16.7242  16.7861  17.1816
    17.1845  17.3773  17.5206  18.1615  18.2197  18.3163  19.2418  19.7641
    22.2487  22.6936

          k = 0.2222 0.2222 0.4444 ( 12513 PWs)   bands (ev):

   -69.9366 -69.2360 -69.2230 -69.2132 -35.9966 -35.9949 -35.9883 -35.7254
   -35.5505 -35.5143 -35.2386 -35.2183 -35.2012 -35.1339 -35.1222 -35.1144
     1.5148  10.0324  11.0316  11.1935  13.8847  14.6646  15.1473  15.1480
    15.4031  15.4925  15.6116  15.9866  16.1835  16.4974  16.7713  17.0063
    17.1467  17.5600  17.7232  18.0966  18.1965  18.2422  18.8108  20.0144
    22.2602  22.3756

          k = 0.2222 0.3333 0.3333 ( 12520 PWs)   bands (ev):

   -69.9366 -69.2366 -69.2195 -69.2161 -35.9983 -35.9975 -35.9880 -35.7393
   -35.5397 -35.5105 -35.2415 -35.2165 -35.2130 -35.1245 -35.1231 -35.1070
     1.5864  10.4046  10.4371  11.0620  13.7833  14.8927  14.9972  15.1536
    15.4037  15.4571  15.8015  16.1024  16.2131  16.6137  16.6341  16.9617
    17.3039  17.3490  17.6460  18.1529  18.2323  18.2820  19.4025  19.9183
    21.6313  22.6892

          k = 0.2222 0.3333 0.4444 ( 12507 PWs)   bands (ev):

   -69.9365 -69.2322 -69.2231 -69.2169 -35.9987 -35.9976 -35.9905 -35.7520
   -35.5364 -35.4963 -35.2499 -35.2224 -35.2144 -35.1241 -35.1192 -35.0992
     1.7557   9.9478  10.3577  10.9827  14.0722  14.8048  15.0272  15.2237
    15.4900  15.7147  15.8751  16.1618  16.1876  16.4232  16.6201  16.8036
    17.2859  17.5121  17.7755  18.1062  18.1695  18.3881  19.0266  20.2482
    21.0539  22.6440

          k = 0.2222 0.4444 0.4444 ( 12518 PWs)   bands (ev):

   -69.9364 -69.2279 -69.2235 -69.2209 -35.9996 -35.9993 -35.9926 -35.7664
   -35.5320 -35.4827 -35.2582 -35.2221 -35.2214 -35.1192 -35.1190 -35.0895
     1.9279   9.8897   9.8970  10.8923  14.2094  14.8979  14.9497  15.0890
    15.6722  16.0014  16.1137  16.2021  16.2633  16.3987  16.5120  16.6593
    17.4068  17.4416  17.8214  17.9829  18.1012  18.7645  19.1470  19.9407
    20.4396  22.9021

          k = 0.3333 0.3333 0.3333 ( 12505 PWs)   bands (ev):

   -69.9365 -69.2333 -69.2194 -69.2194 -36.0004 -36.0004 -35.9916 -35.7670
   -35.5091 -35.5091 -35.2427 -35.2283 -35.2283 -35.1095 -35.1095 -35.1050
     1.8294  10.2647  10.2647  10.4018  13.9569  14.9419  14.9945  14.9945
    15.6693  15.6693  16.1352  16.2178  16.2178  16.5751  16.5751  16.7365
    17.4734  17.5585  17.5585  18.2039  18.2039  18.3422  19.7537  19.7537
    21.9451  21.9451

          k = 0.3333 0.3333 0.4444 ( 12520 PWs)   bands (ev):

   -69.9364 -69.2296 -69.2231 -69.2194 -36.0018 -36.0010 -35.9953 -35.7820
   -35.5082 -35.4922 -35.2477 -35.2364 -35.2297 -35.1083 -35.1017 -35.0978
     2.0035   9.8386  10.1794  10.3014  14.0867  14.8129  14.9323  15.0659
    15.7098  15.9686  16.2182  16.2969  16.3760  16.5445  16.5849  16.7066
    17.4819  17.6854  17.7212  18.2223  18.2878  18.3195  19.0863  20.2692
    21.0592  21.9461

          k = 0.3333 0.4444 0.4444 ( 12510 PWs)   bands (ev):

   -69.9364 -69.2266 -69.2235 -69.2220 -36.0031 -36.0030 -35.9993 -35.7984
   -35.5000 -35.4824 -35.2516 -35.2382 -35.2375 -35.1001 -35.0998 -35.0895
     2.1817   9.7650   9.7772  10.1656  14.0870  14.8236  14.8779  14.9432
    15.8648  16.0631  16.2509  16.2628  16.4463  16.8098  16.8157  16.9890
    17.6310  17.6605  17.7494  18.2078  18.2602  18.5487  19.0740  19.6183
    20.9368  21.9307

          k = 0.4444 0.4444 0.4444 ( 12559 PWs)   bands (ev):

   -69.9363 -69.2252 -69.2235 -69.2235 -36.0052 -36.0052 -36.0039 -35.8160
   -35.4823 -35.4823 -35.2481 -35.2459 -35.2459 -35.0899 -35.0899 -35.0891
     2.3651   9.6881   9.6881   9.7164  14.0121  14.7928  14.8333  14.8333
    16.0115  16.0115  16.2628  16.2628  16.3293  17.4464  17.4464  17.4746
    17.7440  17.7440  17.9040  18.3145  18.3145  18.3172  18.9396  18.9396
    21.2440  21.2440

 ------ SPIN DOWN ----------


          k = 0.0000 0.0000 0.0000 ( 12533 PWs)   bands (ev):

   -67.3634 -67.3026 -67.3026 -66.5338 -33.9865 -33.9865 -33.9865 -33.2305
   -33.2305 -33.2305 -33.1918 -33.1918 -33.1918 -32.6393 -32.6393 -32.6393
     0.4463  11.7276  13.3947  13.3947  13.3947  15.2107  15.2107  15.5336
    15.5336  15.5336  18.0411  18.0411  18.0411  18.7046  18.7046  20.2817
    20.2817  20.2817  20.4081  20.4081  20.5092  20.8706  20.8706  20.8706
    23.0634  23.9612

          k = 0.0000 0.0000 0.1111 ( 12537 PWs)   bands (ev):

   -67.3617 -67.3042 -67.3026 -66.5339 -33.9853 -33.9853 -33.9848 -33.2309
   -33.2295 -33.2295 -33.1929 -33.1929 -33.1922 -32.6422 -32.6405 -32.6405
     0.5152  11.7585  13.0942  13.2812  13.2812  15.2705  15.3099  15.5907
    15.6867  15.6867  17.9633  18.1035  18.1035  18.7111  18.8013  20.2360
    20.2360  20.2819  20.3476  20.3644  20.4463  20.6201  20.6201  20.8706
    23.1047  23.6077

          k = 0.0000 0.0000 0.2222 ( 12549 PWs)   bands (ev):

   -67.3570 -67.3087 -67.3026 -66.5341 -33.9822 -33.9822 -33.9804 -33.2319
   -33.2269 -33.2269 -33.1957 -33.1957 -33.1930 -32.6495 -32.6435 -32.6435
     0.6980  11.5209  12.8546  13.0419  13.0419  15.3356  15.5856  15.7544
    16.0359  16.0359  17.7479  18.2772  18.2772  18.7205  18.8138  19.9887
    19.9887  20.1243  20.1428  20.2201  20.2201  20.2823  20.3765  20.8708
    23.0981  23.2964

          k = 0.0000 0.0000 0.3333 ( 12553 PWs)   bands (ev):

   -67.3501 -67.3153 -67.3026 -66.5343 -33.9786 -33.9786 -33.9753 -33.2330
   -33.2241 -33.2241 -33.1989 -33.1989 -33.1940 -32.6579 -32.6470 -32.6470
     0.9224  10.8625  12.8210  12.8210  13.2717  15.2192  15.9595  15.9955
    16.4088  16.4088  17.4486  18.5181  18.5181  18.5892  18.7025  19.4683
    19.4683  19.7687  19.8262  20.0526  20.0526  20.2829  20.3215  20.8710
    22.9354  23.5438

          k = 0.0000 0.0000 0.4444 ( 12544 PWs)   bands (ev):

   -67.3436 -67.3217 -67.3025 -66.5345 -33.9762 -33.9762 -33.9719 -33.2337
   -33.2222 -33.2222 -33.2009 -33.2009 -33.1947 -32.6635 -32.6494 -32.6494
     1.0803  10.3964  12.6955  12.6955  13.9346  14.7947  16.2270  16.2615
    16.6609  16.6609  17.1793  18.4155  18.6441  18.7635  18.7635  19.0530
    19.0530  19.4979  19.6037  19.9434  19.9434  20.2832  20.2854  20.8712
    22.9014  23.7477

          k = 0.0000 0.1111 0.1111 ( 12557 PWs)   bands (ev):

   -67.3601 -67.3049 -67.3034 -66.5339 -33.9980 -33.9841 -33.9694 -33.2349
   -33.2285 -33.2276 -33.1975 -33.1940 -33.1866 -32.6459 -32.6417 -32.6401
     0.5842  11.7908  12.8621  13.1406  13.1801  15.3466  15.3811  15.6567
    15.8146  15.8154  17.9271  18.1262  18.1578  18.7521  18.7967  20.1518
    20.1886  20.2134  20.2572  20.3571  20.4302  20.5233  20.5310  20.7748
    23.1396  23.8583

          k = 0.0000 0.1111 0.2222 ( 12548 PWs)   bands (ev):

   -67.3555 -67.3090 -67.3037 -66.5341 -34.0073 -33.9810 -33.9532 -33.2420
   -33.2258 -33.2254 -33.2009 -33.1968 -33.1814 -32.6523 -32.6448 -32.6423
     0.7671  11.5461  12.5126  12.9610  13.0784  15.4217  15.6385  15.8236
    16.1193  16.1286  17.7348  18.2827  18.2971  18.6946  18.7299  19.8199
    19.9569  19.9614  20.0876  20.2025  20.3613  20.3779  20.4818  20.7402
    23.2071  23.4011

          k = 0.0000 0.1111 0.3333 ( 12541 PWs)   bands (ev):

   -67.3488 -67.3154 -67.3037 -66.5344 -34.0130 -33.9775 -33.9396 -33.2491
   -33.2230 -33.2229 -33.2031 -33.2000 -33.1781 -32.6583 -32.6483 -32.6460
     0.9918  10.8683  12.4340  12.7536  13.4031  15.3131  16.0057  16.0654
    16.4578  16.4683  17.4442  18.3443  18.4937  18.5276  18.6583  19.4836
    19.5000  19.7219  19.8937  19.9374  20.2480  20.3629  20.3843  20.7409
    23.1202  23.4631

          k = 0.0000 0.1111 0.4444 ( 12514 PWs)   bands (ev):

   -67.3424 -67.3216 -67.3037 -66.5345 -34.0156 -33.9751 -33.9318 -33.2534
   -33.2212 -33.2210 -33.2044 -33.2020 -33.1766 -32.6617 -32.6507 -32.6489
     1.1500  10.3978  12.3630  12.6343  14.0097  14.9058  16.3025  16.3041
    16.6882  16.7031  17.1801  18.1820  18.3306  18.7856  18.7915  19.0849
    19.3044  19.5822  19.6173  19.8229  20.1431  20.3059  20.3647  20.7425
    23.1030  23.5993

          k = 0.0000 0.2222 0.2222 ( 12528 PWs)   bands (ev):

   -67.3512 -67.3108 -67.3060 -66.5343 -34.0287 -33.9780 -33.9266 -33.2582
   -33.2255 -33.2230 -33.2046 -33.1997 -33.1669 -32.6562 -32.6480 -32.6422
     0.9505  11.4992  11.8223  12.7778  13.2516  15.6150  15.7741  15.9973
    16.3297  16.3637  17.6310  18.2673  18.3695  18.5061  18.5787  19.6836
    19.7680  19.8180  19.9190  20.0933  20.4436  20.4476  20.5155  20.6848
    23.1191  23.9533

          k = 0.0000 0.2222 0.3333 ( 12527 PWs)   bands (ev):

   -67.3450 -67.3158 -67.3069 -66.5345 -34.0437 -33.9746 -33.9055 -33.2718
   -33.2253 -33.2197 -33.2088 -33.2028 -33.1557 -32.6579 -32.6516 -32.6447
     1.1763  10.8719  11.6511  12.5969  13.6634  15.5697  16.0778  16.2382
    16.5924  16.6216  17.4052  17.9795  18.2658  18.5837  18.5887  19.5183
    19.5367  19.7117  19.7452  19.8915  20.4106  20.4110  20.4839  20.6812
    23.0115  23.7344

          k = 0.0000 0.2222 0.4444 ( 12515 PWs)   bands (ev):

   -67.3389 -67.3215 -67.3071 -66.5346 -34.0514 -33.9723 -33.8938 -33.2795
   -33.2241 -33.2177 -33.2127 -33.2048 -33.1498 -32.6572 -32.6541 -32.6479
     1.3355  10.3961  11.6141  12.4903  14.2182  15.2000  16.3418  16.4883
    16.7633  16.8471  17.1757  17.7079  18.1342  18.6117  18.8660  19.1779
    19.3753  19.6218  19.6727  19.8136  20.3953  20.4157  20.4754  20.5143
    23.0488  23.6572

          k = 0.0000 0.3333 0.3333 ( 12518 PWs)   bands (ev):

   -67.3394 -67.3174 -67.3106 -66.5346 -34.0661 -33.9713 -33.8793 -33.2897
   -33.2277 -33.2162 -33.2160 -33.2061 -33.1380 -32.6556 -32.6554 -32.6449
     1.4038  10.8320  10.8969  12.4375  14.0754  15.8683  16.0259  16.4608
    16.7897  16.7991  17.2930  17.6315  18.0635  18.5078  18.7329  19.3588
    19.5305  19.5347  19.7313  19.9248  20.1458  20.5073  20.5137  20.8575
    22.5355  24.3133

          k = 0.0000 0.3333 0.4444 ( 12517 PWs)   bands (ev):

   -67.3336 -67.3214 -67.3123 -66.5347 -34.0778 -33.9691 -33.8649 -33.2994
   -33.2280 -33.2221 -33.2139 -33.2081 -33.1285 -32.6579 -32.6522 -32.6469
     1.5647  10.3852  10.8477  12.3420  14.5567  15.6032  16.2203  16.6897
    16.8594  17.0665  17.1526  17.3659  17.9798  18.4025  18.9744  19.2075
    19.2665  19.5028  19.5849  20.0347  20.0959  20.5257  20.5913  20.7762
    22.3310  24.3167

          k = 0.0000 0.4444 0.4444 ( 12492 PWs)   bands (ev):

   -67.3276 -67.3218 -67.3178 -66.5348 -34.0918 -33.9670 -33.8493 -33.3101
   -33.2302 -33.2285 -33.2115 -33.2102 -33.1169 -32.6605 -32.6485 -32.6468
     1.7269  10.3717  10.3757  12.2522  14.9225  15.9621  15.9822  16.8460
    16.9116  16.9141  17.1166  17.5507  17.9119  18.1333  19.0468  19.0620
    19.3044  19.4723  19.5335  19.7152  20.2626  20.5384  20.7785  20.8776
    21.8696  24.8266

          k = 0.1111 0.1111 0.1111 ( 12563 PWs)   bands (ev):

   -67.3585 -67.3049 -67.3049 -66.5340 -34.0114 -33.9682 -33.9682 -33.2359
   -33.2306 -33.2306 -33.1955 -33.1955 -33.1827 -32.6497 -32.6410 -32.6410
     0.6532  11.8237  12.7771  12.7771  13.1935  15.4347  15.4347  15.7978
    15.7978  15.9799  17.8993  18.1707  18.1707  18.7705  18.7705  20.0057
    20.1165  20.1421  20.1421  20.4005  20.4005  20.4020  20.6831  20.6831
    23.1810  24.0625

          k = 0.1111 0.1111 0.2222 ( 12529 PWs)   bands (ev):

   -67.3540 -67.3092 -67.3049 -66.5342 -34.0257 -33.9654 -33.9475 -33.2433
   -33.2379 -33.2286 -33.1954 -33.1926 -33.1770 -32.6554 -32.6433 -32.6428
     0.8363  11.5661  12.4035  12.5861  13.2015  15.5070  15.6956  15.9214
    16.1319  16.2323  17.7284  18.2745  18.2894  18.6801  18.6803  19.6473
    19.7883  19.9248  19.9926  20.2988  20.4492  20.4713  20.5380  20.7272
    23.2584  23.5522

          k = 0.1111 0.1111 0.3333 ( 12526 PWs)   bands (ev):

   -67.3475 -67.3155 -67.3049 -66.5344 -34.0354 -33.9622 -33.9303 -33.2515
   -33.2455 -33.2239 -33.1936 -33.1923 -33.1727 -32.6594 -32.6473 -32.6459
     1.0614  10.8680  12.3698  12.3990  13.5154  15.4058  16.0630  16.1447
    16.4745  16.5167  17.4469  18.2330  18.3236  18.6235  18.6585  19.2549
    19.5474  19.7154  19.8095  20.1299  20.3507  20.3763  20.5339  20.6670
    23.2543  23.4788

          k = 0.1111 0.1111 0.4444 ( 12521 PWs)   bands (ev):

   -67.3412 -67.3216 -67.3048 -66.5345 -34.0402 -33.9601 -33.9206 -33.2563
   -33.2502 -33.2198 -33.1938 -33.1922 -33.1706 -32.6603 -32.6520 -32.6477
     1.2200  10.3941  12.2893  12.3294  14.0812  15.0140  16.3634  16.3822
    16.6154  16.8201  17.1838  17.9896  18.2135  18.7872  18.8092  19.0182
    19.2798  19.6462  19.6873  20.0050  20.1067  20.3068  20.5543  20.6459
    23.2675  23.5689

          k = 0.1111 0.2222 0.2222 ( 12537 PWs)   bands (ev):

   -67.3499 -67.3108 -67.3072 -66.5343 -34.0487 -33.9565 -33.9258 -33.2587
   -33.2401 -33.2388 -33.1904 -33.1874 -33.1655 -32.6594 -32.6451 -32.6424
     1.0201  11.5142  11.7664  12.3870  13.3760  15.7044  15.8409  16.1110
    16.3312  16.3849  17.6415  18.2107  18.2628  18.5891  18.6017  19.4315
    19.5364  19.8334  19.8426  20.2437  20.4422  20.4844  20.7325  20.8285
    23.2303  23.9473

          k = 0.1111 0.2222 0.3333 ( 12525 PWs)   bands (ev):

   -67.3439 -67.3158 -67.3079 -66.5345 -34.0656 -33.9525 -33.9041 -33.2733
   -33.2497 -33.2378 -33.1876 -33.1852 -33.1549 -32.6603 -32.6481 -32.6443
     1.2465  10.8575  11.6116  12.2610  13.7620  15.6578  16.1554  16.3303
    16.5271  16.6653  17.4261  17.9405  18.1448  18.6006  18.6607  19.2781
    19.3044  19.7069  19.8062  20.0896  20.3803  20.4333  20.7263  20.8363
    23.1213  23.7697

          k = 0.1111 0.2222 0.4444 ( 12540 PWs)   bands (ev):

   -67.3379 -67.3215 -67.3081 -66.5346 -34.0744 -33.9503 -33.8917 -33.2813
   -33.2555 -33.2366 -33.1858 -33.1850 -33.1491 -32.6576 -32.6526 -32.6463
     1.4064  10.3800  11.5686  12.1835  14.2831  15.2976  16.4053  16.5686
    16.6593  16.9776  17.1955  17.6109  18.0537  18.6267  18.8410  19.0776
    19.1792  19.7030  19.8059  19.9540  20.3195  20.3830  20.4880  20.8720
    23.1471  23.7263

          k = 0.1111 0.3333 0.3333 ( 12528 PWs)   bands (ev):

   -67.3385 -67.3174 -67.3115 -66.5346 -34.0887 -33.9481 -33.8789 -33.2921
   -33.2524 -33.2490 -33.1846 -33.1828 -33.1378 -32.6593 -32.6493 -32.6442
     1.4751  10.8124  10.8547  12.1297  14.1547  15.9505  16.0732  16.5539
    16.6811  16.8732  17.3268  17.6479  17.9842  18.5072  18.7405  19.0987
    19.3923  19.5426  19.9238  19.9248  20.2617  20.4111  20.8984  20.9779
    22.5960  24.2109

          k = 0.1111 0.3333 0.4444 ( 12508 PWs)   bands (ev):

   -67.3330 -67.3214 -67.3129 -66.5347 -34.1010 -33.9458 -33.8646 -33.3022
   -33.2583 -33.2513 -33.1830 -33.1823 -33.1283 -32.6574 -32.6497 -32.6456
     1.6368  10.3568  10.8091  12.0487  14.6042  15.6785  16.2441  16.7772
    16.8627  17.0624  17.1775  17.4109  17.9283  18.4037  18.8155  18.9913
    19.3558  19.5850  19.7344  19.9964  20.1409  20.5094  20.7320  21.0729
    22.3519  24.2447

          k = 0.1111 0.4444 0.4444 ( 12499 PWs)   bands (ev):

   -67.3273 -67.3218 -67.3181 -66.5348 -34.1153 -33.9436 -33.8492 -33.3133
   -33.2604 -33.2597 -33.1817 -33.1815 -33.1168 -32.6579 -32.6468 -32.6455
     1.8001  10.3372  10.3387  11.9662  14.9331  15.9995  16.0393  16.8468
    16.9393  17.0014  17.1564  17.6199  17.8810  18.1382  18.6867  19.0343
    19.4389  19.5799  19.6274  19.9198  19.9908  20.7271  20.8653  21.1311
    21.8234  24.5854

          k = 0.2222 0.2222 0.2222 ( 12524 PWs)   bands (ev):

   -67.3462 -67.3108 -67.3108 -66.5345 -34.0774 -33.9238 -33.9238 -33.2611
   -33.2611 -33.2584 -33.1744 -33.1744 -33.1596 -32.6624 -32.6428 -32.6428
     1.2052  11.5057  11.6332  11.6332  13.6117  15.9656  15.9656  16.3811
    16.3961  16.3961  17.6134  18.0860  18.0860  18.6336  18.6336  19.2215
    19.2255  19.7409  19.7409  20.3381  20.4370  20.4370  21.0801  21.0801
    23.3972  23.8153

          k = 0.2222 0.2222 0.3333 ( 12517 PWs)   bands (ev):

   -67.3407 -67.3160 -67.3107 -66.5346 -34.0995 -33.9215 -33.8972 -33.2782
   -33.2759 -33.2613 -33.1694 -33.1640 -33.1501 -32.6614 -32.6443 -32.6432
     1.4336  10.8143  11.4941  11.5403  14.0010  15.8917  16.3473  16.3801
    16.5659  16.7438  17.4589  17.8193  17.9647  18.6057  18.6850  18.9745
    19.2131  19.6809  19.7893  20.2384  20.3908  20.4169  20.9558  21.2854
    23.3373  23.6137

          k = 0.2222 0.2222 0.4444 ( 12513 PWs)   bands (ev):

   -67.3352 -67.3214 -67.3107 -66.5347 -34.1112 -33.9200 -33.8824 -33.2876
   -33.2846 -33.2623 -33.1677 -33.1591 -33.1440 -32.6568 -32.6491 -32.6436
     1.5952  10.3372  11.4092  11.5220  14.4638  15.5468  16.4098  16.6962
    16.7870  17.0773  17.2510  17.4545  17.9243  18.6154  18.7202  18.7986
    19.2516  19.7833  19.8994  20.1209  20.3447  20.3567  20.5389  21.3918
    23.3746  23.4639

          k = 0.2222 0.3333 0.3333 ( 12520 PWs)   bands (ev):

   -67.3361 -67.3174 -67.3138 -66.5347 -34.1263 -33.9092 -33.8780 -33.2980
   -33.2825 -33.2786 -33.1585 -33.1566 -33.1369 -32.6588 -32.6434 -32.6424
     1.6651  10.7517  10.7598  11.4197  14.3573  16.1251  16.1725  16.5859
    16.7955  16.9206  17.4225  17.6826  17.8430  18.5147  18.6474  18.7609
    19.3524  19.6420  19.8903  20.1761  20.3802  20.3973  21.0668  21.4860
    22.7512  23.7078

          k = 0.2222 0.3333 0.4444 ( 12507 PWs)   bands (ev):

   -67.3311 -67.3214 -67.3147 -66.5347 -34.1407 -33.9063 -33.8633 -33.3092
   -33.2912 -33.2830 -33.1561 -33.1519 -33.1278 -32.6542 -32.6452 -32.6421
     1.8294  10.2853  10.7137  11.3579  14.7231  15.8567  16.2686  16.8383
    17.0106  17.0609  17.3086  17.5571  17.8458  18.4189  18.5336  18.7260
    19.4677  19.7471  19.9624  20.0610  20.3209  20.4542  20.7320  21.6895
    22.3541  23.6880

          k = 0.2222 0.4444 0.4444 ( 12518 PWs)   bands (ev):

   -67.3264 -67.3217 -67.3189 -66.5348 -34.1567 -33.9023 -33.8490 -33.3212
   -33.2949 -33.2942 -33.1507 -33.1504 -33.1167 -32.6513 -32.6427 -32.6423
     1.9961  10.2478  10.2520  11.2850  14.9443  16.0836  16.1700  16.6778
    17.2033  17.2398  17.3383  17.7452  17.8432  18.1948  18.3673  18.7274
    19.6940  19.7348  19.8891  19.9597  20.2298  20.6464  20.8149  21.6135
    21.8563  23.8902

          k = 0.3333 0.3333 0.3333 ( 12505 PWs)   bands (ev):

   -67.3324 -67.3174 -67.3174 -66.5347 -34.1569 -33.8770 -33.8770 -33.3058
   -33.3058 -33.2999 -33.1403 -33.1403 -33.1333 -32.6544 -32.6404 -32.6404
     1.9012  10.6410  10.6410  10.7351  14.6291  16.0839  16.4465  16.4465
    17.0957  17.0957  17.5101  17.7471  17.7471  18.4505  18.5255  18.5255
    19.5063  19.8514  19.8514  20.2896  20.3760  20.3760  21.3674  21.3674
    22.9689  22.9689

          k = 0.3333 0.3333 0.4444 ( 12520 PWs)   bands (ev):

   -67.3283 -67.3213 -67.3173 -66.5347 -34.1735 -33.8763 -33.8592 -33.3184
   -33.3145 -33.3075 -33.1377 -33.1312 -33.1256 -32.6489 -32.6410 -32.6390
     2.0694  10.2050  10.5718  10.6655  14.8542  16.0352  16.2875  16.6327
    17.3154  17.3326  17.5108  17.7316  17.8242  18.2898  18.4213  18.5172
    19.6667  19.9042  20.0202  20.2100  20.3906  20.4081  20.7760  21.7175
    22.3421  23.1530

          k = 0.3333 0.4444 0.4444 ( 12510 PWs)   bands (ev):

   -67.3251 -67.3217 -67.3201 -66.5347 -34.1915 -33.8677 -33.8489 -33.3300
   -33.3214 -33.3206 -33.1284 -33.1281 -33.1166 -32.6437 -32.6386 -32.6384
     2.2410  10.1490  10.1585  10.5577  14.9331  16.1686  16.2822  16.4795
    17.5926  17.5995  17.6672  17.8601  17.8665  18.1334  18.3001  18.4925
    19.8638  19.9511  20.0417  20.1414  20.4198  20.4853  20.7228  21.2312
    22.3661  23.1196

          k = 0.4444 0.4444 0.4444 ( 12559 PWs)   bands (ev):

   -67.3235 -67.3217 -67.3217 -66.5347 -34.2106 -33.8487 -33.8487 -33.3357
   -33.3357 -33.3347 -33.1169 -33.1169 -33.1160 -32.6382 -32.6361 -32.6361
     2.4167  10.0868  10.0868  10.1093  14.9150  16.2386  16.3299  16.3299
    17.8949  17.8949  17.9810  17.9810  17.9853  18.0023  18.3664  18.3664
    20.0131  20.0710  20.0710  20.2604  20.3447  20.3447  20.7349  20.7349
    22.6688  22.6688

     the Fermi energy is    18.7319 ev

!    total energy              =   -1345.17093427 Ry
     Harris-Foulkes estimate   =   -1345.17093427 Ry
     estimated scf accuracy    <          1.9E-09 Ry

     total all-electron energy =    -10291.772570 Ry

     The total energy is the sum of the following terms:

     one-electron contribution =    -446.73784482 Ry
     hartree contribution      =     269.20288928 Ry
     xc contribution           =    -117.08732464 Ry
     ewald contribution        =    -711.61403732 Ry
     one-center paw contrib.   =    -338.93470717 Ry
     smearing contrib. (-TS)   =       0.00009040 Ry

     total magnetization       =     7.68 Bohr mag/cell
     absolute magnetization    =     8.03 Bohr mag/cell

     convergence has been achieved in  26 iterations

     Forces acting on atoms (Ry/au):


     negative rho (up, down):  0.000E+00 1.817E-04
     atom    1 type  1   force =     0.00000000    0.00000000    0.00000000
     atom    2 type  1   force =     0.00000000    0.00000000    0.00000000
     atom    3 type  1   force =     0.00000000    0.00000000    0.00000000
     atom    4 type  1   force =     0.00000000    0.00000000    0.00000000
     atom    5 type  2   force =     0.00000000    0.00000000    0.00000000

     Total force =     0.000000     Total SCF correction =     0.000000


     entering subroutine stress ...


     negative rho (up, down):  0.000E+00 1.817E-04
          total   stress  (Ry/bohr**3)                   (kbar)     P=  149.93
   0.00101921   0.00000000   0.00000000        149.93      0.00      0.00
   0.00000000   0.00101921   0.00000000          0.00    149.93      0.00
   0.00000000   0.00000000   0.00101921          0.00      0.00    149.93


     Writing output data file config.save
 
     init_run     :      9.99s CPU     10.38s WALL (       1 calls)
     electrons    :    711.20s CPU    736.98s WALL (       1 calls)
     forces       :      2.64s CPU      2.72s WALL (       1 calls)
     stress       :      9.56s CPU      9.91s WALL (       1 calls)

     Called by init_run:
     wfcinit      :      7.81s CPU      7.95s WALL (       1 calls)
     potinit      :      0.89s CPU      0.94s WALL (       1 calls)

     Called by electrons:
     c_bands      :    506.00s CPU    520.22s WALL (      26 calls)
     sum_band     :    173.39s CPU    181.18s WALL (      26 calls)
     v_of_rho     :      8.26s CPU      8.48s WALL (      27 calls)
     newd         :     11.68s CPU     14.77s WALL (      27 calls)
     mix_rho      :      1.59s CPU      1.63s WALL (      26 calls)

     Called by c_bands:
     init_us_2    :      7.57s CPU      7.83s WALL (    3850 calls)
     cegterg      :    480.07s CPU    493.57s WALL (    1820 calls)

     Called by sum_band:
     sum_band:bec :      0.07s CPU      0.07s WALL (    1820 calls)
     addusdens    :     34.56s CPU     38.55s WALL (      26 calls)

     Called by *egterg:
     h_psi        :    388.70s CPU    399.94s WALL (    6203 calls)
     s_psi        :     11.81s CPU     12.12s WALL (    6203 calls)
     g_psi        :      2.01s CPU      2.05s WALL (    4313 calls)
     cdiaghg      :     18.40s CPU     18.85s WALL (    6133 calls)

     Called by h_psi:
     add_vuspsi   :     11.45s CPU     11.80s WALL (    6203 calls)

     General routines
     calbec       :     18.38s CPU     18.95s WALL (    8373 calls)
     fft          :      6.69s CPU      6.88s WALL (     871 calls)
     ffts         :      0.12s CPU      0.12s WALL (     106 calls)
     fftw         :    259.36s CPU    266.74s WALL (  434648 calls)
     interpolate  :      1.16s CPU      1.18s WALL (     106 calls)
     davcio       :      0.14s CPU      0.40s WALL (      70 calls)
 
     Parallel routines
     fft_scatter  :    126.87s CPU    130.77s WALL (  435625 calls)

     PAW routines
     PAW_pot      :     10.44s CPU     10.92s WALL (      27 calls)
     PAW_symme    :      0.04s CPU      0.04s WALL (      53 calls)
 
     PWSCF        : 12m14.14s CPU    12m41.11s WALL

 
   This run was terminated on:  17:18: 3  27Oct2020            

=------------------------------------------------------------------------------=
   JOB DONE.
=------------------------------------------------------------------------------=
