
     Program PWSCF v.5.2.0 starts on 27Oct2020 at 17:19:47 

     This program is part of the open-source Quantum ESPRESSO suite
     for quantum simulation of materials; please cite
         "P. Giannozzi et al., J. Phys.:Condens. Matter 21 395502 (2009);
          URL http://www.quantum-espresso.org", 
     in publications or presentations arising from this work. More details at
     http://www.quantum-espresso.org/quote

     Parallel version (MPI), running on     6 processors
     R & G space division:  proc/nbgrp/npool/nimage =       6
     Reading input from 12.in

     Current dimensions of program PWSCF are:
     Max number of different atomic species (ntypx) = 10
     Max number of k-points (npk) =  40000
     Max angular momentum in pseudopotentials (lmaxx) =  3

     IMPORTANT: XC functional enforced from input :
     Exchange-correlation      = PBE ( 1  4  3  4 0 0)
     Any further DFT definition will be discarded
     Please, verify this is what you really want

               file Fe_PSEUDO: wavefunction(s)  3P 3D renormalized
               file N_PSEUDO: wavefunction(s)  2S renormalized

     Subspace diagonalization in iterative solution of the eigenvalue problem:
     a serial algorithm will be used

 
     Parallelization info
     --------------------
     sticks:   dense  smooth     PW     G-vecs:    dense   smooth      PW
     Min        1301     433    120                86835    16718    2460
     Max        1302     434    121                86838    16737    2463
     Sum        7809    2601    725               521019   100377   14771
 
     Generating pointlists ...
     new r_m :   0.2063 (alat units)  1.4318 (a.u.) for type    1
     new r_m :   0.2063 (alat units)  1.4318 (a.u.) for type    2


     bravais-lattice index     =            0
     lattice parameter (alat)  =       6.9422  a.u.
     unit-cell volume          =     334.5777 (a.u.)^3
     number of atoms/cell      =            5
     number of atomic types    =            2
     number of electrons       =        69.00
     number of Kohn-Sham states=           42
     kinetic-energy cutoff     =     170.0000  Ry
     charge density cutoff     =    2040.0000  Ry
     convergence threshold     =      1.0E-08
     mixing beta               =       0.7000
     number of iterations used =            8  plain     mixing
     Exchange-correlation      = PBE ( 1  4  3  4 0 0)

     celldm(1)=   6.942230  celldm(2)=   0.000000  celldm(3)=   0.000000
     celldm(4)=   0.000000  celldm(5)=   0.000000  celldm(6)=   0.000000

     crystal axes: (cart. coord. in units of alat)
               a(1) = (   1.000000   0.000000   0.000000 )  
               a(2) = (   0.000000   1.000000   0.000000 )  
               a(3) = (   0.000000   0.000000   1.000000 )  

     reciprocal axes: (cart. coord. in units 2 pi/alat)
               b(1) = (  1.000000  0.000000  0.000000 )  
               b(2) = (  0.000000  1.000000  0.000000 )  
               b(3) = (  0.000000  0.000000  1.000000 )  


     PseudoPot. # 1 for Fe read from file:
     pseudo/Fe_PSEUDO
     MD5 check sum: e30d5f36a6f0cb983ee41abee56170da
     Pseudo is Projector augmented-wave + core cor, Zval = 16.0
     Generated using "atomic" code by A. Dal Corso  v.6.3
     Shape of augmentation charge: PSQ
     Using radial grid of 1191 points,  6 beta functions with: 
                l(1) =   0
                l(2) =   0
                l(3) =   1
                l(4) =   1
                l(5) =   2
                l(6) =   2
     Q(r) pseudized with 0 coefficients 


     PseudoPot. # 2 for  N read from file:
     pseudo/N_PSEUDO
     MD5 check sum: 14c48229446f9f2d411169a3abcbc3fa
     Pseudo is Projector augmented-wave + core cor, Zval =  5.0
     Generated using "atomic" code by A. Dal Corso  v.6.3
     Shape of augmentation charge: PSQ
     Using radial grid of 1085 points,  4 beta functions with: 
                l(1) =   0
                l(2) =   0
                l(3) =   1
                l(4) =   1
     Q(r) pseudized with 0 coefficients 


     atomic species   valence    mass     pseudopotential
        Fe            16.00    55.84500     Fe( 1.00)
        N              5.00    14.00650      N( 1.00)

     Starting magnetic structure 
     atomic species   magnetization
        Fe           0.500
        N           -0.010

     48 Sym. Ops., with inversion, found



   Cartesian axes

     site n.     atom                  positions (alat units)
         1           Fe  tau(   1) = (   0.0000000   0.5000000   0.5000000  )
         2           Fe  tau(   2) = (   0.5000000   0.5000000   0.0000000  )
         3           Fe  tau(   3) = (   0.5000000   0.0000000   0.5000000  )
         4           Fe  tau(   4) = (   0.0000000   0.0000000   0.0000000  )
         5           N   tau(   5) = (   0.5000000   0.5000000   0.5000000  )

     number of k points=    70  Marzari-Vanderbilt smearing, width (Ry)=  0.0050
                       cart. coord. in units 2pi/alat
        k(    1) = (   0.0000000   0.0000000   0.0000000), wk =   0.0013717
        k(    2) = (   0.0000000   0.0000000   0.1111111), wk =   0.0082305
        k(    3) = (   0.0000000   0.0000000   0.2222222), wk =   0.0082305
        k(    4) = (   0.0000000   0.0000000   0.3333333), wk =   0.0082305
        k(    5) = (   0.0000000   0.0000000   0.4444444), wk =   0.0082305
        k(    6) = (   0.0000000   0.1111111   0.1111111), wk =   0.0164609
        k(    7) = (   0.0000000   0.1111111   0.2222222), wk =   0.0329218
        k(    8) = (   0.0000000   0.1111111   0.3333333), wk =   0.0329218
        k(    9) = (   0.0000000   0.1111111   0.4444444), wk =   0.0329218
        k(   10) = (   0.0000000   0.2222222   0.2222222), wk =   0.0164609
        k(   11) = (   0.0000000   0.2222222   0.3333333), wk =   0.0329218
        k(   12) = (   0.0000000   0.2222222   0.4444444), wk =   0.0329218
        k(   13) = (   0.0000000   0.3333333   0.3333333), wk =   0.0164609
        k(   14) = (   0.0000000   0.3333333   0.4444444), wk =   0.0329218
        k(   15) = (   0.0000000   0.4444444   0.4444444), wk =   0.0164609
        k(   16) = (   0.1111111   0.1111111   0.1111111), wk =   0.0109739
        k(   17) = (   0.1111111   0.1111111   0.2222222), wk =   0.0329218
        k(   18) = (   0.1111111   0.1111111   0.3333333), wk =   0.0329218
        k(   19) = (   0.1111111   0.1111111   0.4444444), wk =   0.0329218
        k(   20) = (   0.1111111   0.2222222   0.2222222), wk =   0.0329218
        k(   21) = (   0.1111111   0.2222222   0.3333333), wk =   0.0658436
        k(   22) = (   0.1111111   0.2222222   0.4444444), wk =   0.0658436
        k(   23) = (   0.1111111   0.3333333   0.3333333), wk =   0.0329218
        k(   24) = (   0.1111111   0.3333333   0.4444444), wk =   0.0658436
        k(   25) = (   0.1111111   0.4444444   0.4444444), wk =   0.0329218
        k(   26) = (   0.2222222   0.2222222   0.2222222), wk =   0.0109739
        k(   27) = (   0.2222222   0.2222222   0.3333333), wk =   0.0329218
        k(   28) = (   0.2222222   0.2222222   0.4444444), wk =   0.0329218
        k(   29) = (   0.2222222   0.3333333   0.3333333), wk =   0.0329218
        k(   30) = (   0.2222222   0.3333333   0.4444444), wk =   0.0658436
        k(   31) = (   0.2222222   0.4444444   0.4444444), wk =   0.0329218
        k(   32) = (   0.3333333   0.3333333   0.3333333), wk =   0.0109739
        k(   33) = (   0.3333333   0.3333333   0.4444444), wk =   0.0329218
        k(   34) = (   0.3333333   0.4444444   0.4444444), wk =   0.0329218
        k(   35) = (   0.4444444   0.4444444   0.4444444), wk =   0.0109739
        k(   36) = (   0.0000000   0.0000000   0.0000000), wk =   0.0013717
        k(   37) = (   0.0000000   0.0000000   0.1111111), wk =   0.0082305
        k(   38) = (   0.0000000   0.0000000   0.2222222), wk =   0.0082305
        k(   39) = (   0.0000000   0.0000000   0.3333333), wk =   0.0082305
        k(   40) = (   0.0000000   0.0000000   0.4444444), wk =   0.0082305
        k(   41) = (   0.0000000   0.1111111   0.1111111), wk =   0.0164609
        k(   42) = (   0.0000000   0.1111111   0.2222222), wk =   0.0329218
        k(   43) = (   0.0000000   0.1111111   0.3333333), wk =   0.0329218
        k(   44) = (   0.0000000   0.1111111   0.4444444), wk =   0.0329218
        k(   45) = (   0.0000000   0.2222222   0.2222222), wk =   0.0164609
        k(   46) = (   0.0000000   0.2222222   0.3333333), wk =   0.0329218
        k(   47) = (   0.0000000   0.2222222   0.4444444), wk =   0.0329218
        k(   48) = (   0.0000000   0.3333333   0.3333333), wk =   0.0164609
        k(   49) = (   0.0000000   0.3333333   0.4444444), wk =   0.0329218
        k(   50) = (   0.0000000   0.4444444   0.4444444), wk =   0.0164609
        k(   51) = (   0.1111111   0.1111111   0.1111111), wk =   0.0109739
        k(   52) = (   0.1111111   0.1111111   0.2222222), wk =   0.0329218
        k(   53) = (   0.1111111   0.1111111   0.3333333), wk =   0.0329218
        k(   54) = (   0.1111111   0.1111111   0.4444444), wk =   0.0329218
        k(   55) = (   0.1111111   0.2222222   0.2222222), wk =   0.0329218
        k(   56) = (   0.1111111   0.2222222   0.3333333), wk =   0.0658436
        k(   57) = (   0.1111111   0.2222222   0.4444444), wk =   0.0658436
        k(   58) = (   0.1111111   0.3333333   0.3333333), wk =   0.0329218
        k(   59) = (   0.1111111   0.3333333   0.4444444), wk =   0.0658436
        k(   60) = (   0.1111111   0.4444444   0.4444444), wk =   0.0329218
        k(   61) = (   0.2222222   0.2222222   0.2222222), wk =   0.0109739
        k(   62) = (   0.2222222   0.2222222   0.3333333), wk =   0.0329218
        k(   63) = (   0.2222222   0.2222222   0.4444444), wk =   0.0329218
        k(   64) = (   0.2222222   0.3333333   0.3333333), wk =   0.0329218
        k(   65) = (   0.2222222   0.3333333   0.4444444), wk =   0.0658436
        k(   66) = (   0.2222222   0.4444444   0.4444444), wk =   0.0329218
        k(   67) = (   0.3333333   0.3333333   0.3333333), wk =   0.0109739
        k(   68) = (   0.3333333   0.3333333   0.4444444), wk =   0.0329218
        k(   69) = (   0.3333333   0.4444444   0.4444444), wk =   0.0329218
        k(   70) = (   0.4444444   0.4444444   0.4444444), wk =   0.0109739

     Dense  grid:   521019 G-vectors     FFT dimensions: ( 100, 100, 100)

     Smooth grid:   100377 G-vectors     FFT dimensions: (  60,  60,  60)

     Largest allocated arrays     est. size (Mb)     dimensions
        Kohn-Sham Wavefunctions         1.36 Mb     (    2121,   42)
        NL pseudopotentials             2.59 Mb     (    2121,   80)
        Each V/rho on FFT grid          5.19 Mb     (  170000,   2)
        Each G-vector array             0.66 Mb     (   86835)
        G-vector shells                 0.02 Mb     (    2074)
     Largest temporary arrays     est. size (Mb)     dimensions
        Auxiliary wavefunctions         5.44 Mb     (    2121,  168)
        Each subspace H/S matrix        0.43 Mb     (     168,  168)
        Each <psi_i|beta_j> matrix      0.05 Mb     (      80,   42)
        Arrays for rho mixing          20.75 Mb     (  170000,    8)

     Initial potential from superposition of free atoms

     starting charge   68.99837, renormalised to   69.00000
     Starting wfc are   44 randomized atomic wfcs
     Checking if some PAW data can be deallocated... 

     total cpu time spent up to now is       12.5 secs

     per-process dynamical memory:   179.3 Mb

     Self-consistent Calculation

     iteration #  1     ecut=   170.00 Ry     beta=0.70
     Davidson diagonalization with overlap
     ethr =  1.00E-02,  avg # of iterations =  3.1

     negative rho (up, down):  0.000E+00 4.202E-04
 
     Magnetic moment per site:
     atom:    1    charge:   12.7335    magn:    4.0984    constr:    0.0000
     atom:    2    charge:   12.7335    magn:    4.0984    constr:    0.0000
     atom:    3    charge:   12.7335    magn:    4.0984    constr:    0.0000
     atom:    4    charge:   12.6137    magn:    4.1677    constr:    0.0000
     atom:    5    charge:    4.6362    magn:    0.1185    constr:    0.0000

     total cpu time spent up to now is       46.0 secs

     total energy              =   -1344.14342392 Ry
     Harris-Foulkes estimate   =   -1343.44554654 Ry
     estimated scf accuracy    <       2.86590443 Ry

     total magnetization       =    13.88 Bohr mag/cell
     absolute magnetization    =    14.06 Bohr mag/cell

     iteration #  2     ecut=   170.00 Ry     beta=0.70
     Davidson diagonalization with overlap
     ethr =  4.15E-03,  avg # of iterations =  3.3

     negative rho (up, down):  0.000E+00 3.670E-04
 
     Magnetic moment per site:
     atom:    1    charge:   12.7244    magn:    3.8177    constr:    0.0000
     atom:    2    charge:   12.7244    magn:    3.8177    constr:    0.0000
     atom:    3    charge:   12.7244    magn:    3.8177    constr:    0.0000
     atom:    4    charge:   13.0650    magn:    3.5714    constr:    0.0000
     atom:    5    charge:    4.2267    magn:    0.0572    constr:    0.0000

     total cpu time spent up to now is       79.3 secs

     total energy              =   -1343.30050409 Ry
     Harris-Foulkes estimate   =   -1345.75074141 Ry
     estimated scf accuracy    <       8.52717163 Ry

     total magnetization       =     9.38 Bohr mag/cell
     absolute magnetization    =    10.50 Bohr mag/cell

     iteration #  3     ecut=   170.00 Ry     beta=0.70
     Davidson diagonalization with overlap
     ethr =  4.15E-03,  avg # of iterations =  3.5

     negative rho (up, down):  0.000E+00 1.736E-04
 
     Magnetic moment per site:
     atom:    1    charge:   12.8851    magn:    3.4487    constr:    0.0000
     atom:    2    charge:   12.8851    magn:    3.4487    constr:    0.0000
     atom:    3    charge:   12.8851    magn:    3.4487    constr:    0.0000
     atom:    4    charge:   12.8122    magn:    3.0188    constr:    0.0000
     atom:    5    charge:    4.0304    magn:    0.0242    constr:    0.0000

     total cpu time spent up to now is      112.8 secs

     total energy              =   -1343.62311444 Ry
     Harris-Foulkes estimate   =   -1346.18814463 Ry
     estimated scf accuracy    <      25.49968304 Ry

     total magnetization       =     3.80 Bohr mag/cell
     absolute magnetization    =     4.51 Bohr mag/cell

     iteration #  4     ecut=   170.00 Ry     beta=0.70
     Davidson diagonalization with overlap
     ethr =  4.15E-03,  avg # of iterations =  3.2

     negative rho (up, down):  0.000E+00 5.338E-04
 
     Magnetic moment per site:
     atom:    1    charge:   12.7743    magn:    2.2624    constr:    0.0000
     atom:    2    charge:   12.7743    magn:    2.2624    constr:    0.0000
     atom:    3    charge:   12.7743    magn:    2.2624    constr:    0.0000
     atom:    4    charge:   12.7285    magn:    1.8795    constr:    0.0000
     atom:    5    charge:    4.0534    magn:   -0.0485    constr:    0.0000

     total cpu time spent up to now is      145.2 secs

     total energy              =   -1345.02963966 Ry
     Harris-Foulkes estimate   =   -1345.10711539 Ry
     estimated scf accuracy    <       0.54802771 Ry

     total magnetization       =    10.75 Bohr mag/cell
     absolute magnetization    =    11.16 Bohr mag/cell

     iteration #  5     ecut=   170.00 Ry     beta=0.70
     Davidson diagonalization with overlap
     ethr =  7.94E-04,  avg # of iterations =  3.3

     negative rho (up, down):  0.000E+00 3.720E-04
 
     Magnetic moment per site:
     atom:    1    charge:   12.8333    magn:    2.1625    constr:    0.0000
     atom:    2    charge:   12.8333    magn:    2.1625    constr:    0.0000
     atom:    3    charge:   12.8333    magn:    2.1625    constr:    0.0000
     atom:    4    charge:   12.8042    magn:    2.0426    constr:    0.0000
     atom:    5    charge:    4.1101    magn:   -0.0267    constr:    0.0000

     total cpu time spent up to now is      180.2 secs

     total energy              =   -1345.11499118 Ry
     Harris-Foulkes estimate   =   -1345.20260788 Ry
     estimated scf accuracy    <       0.24211255 Ry

     total magnetization       =     9.59 Bohr mag/cell
     absolute magnetization    =     9.95 Bohr mag/cell

     iteration #  6     ecut=   170.00 Ry     beta=0.70
     Davidson diagonalization with overlap
     ethr =  3.51E-04,  avg # of iterations =  3.0

     negative rho (up, down):  0.000E+00 2.883E-04
 
     Magnetic moment per site:
     atom:    1    charge:   12.8272    magn:    2.1145    constr:    0.0000
     atom:    2    charge:   12.8272    magn:    2.1145    constr:    0.0000
     atom:    3    charge:   12.8272    magn:    2.1145    constr:    0.0000
     atom:    4    charge:   12.7932    magn:    2.3710    constr:    0.0000
     atom:    5    charge:    4.1121    magn:    0.0065    constr:    0.0000

     total cpu time spent up to now is      212.9 secs

     total energy              =   -1345.16189859 Ry
     Harris-Foulkes estimate   =   -1345.15766590 Ry
     estimated scf accuracy    <       0.02603426 Ry

     total magnetization       =     9.38 Bohr mag/cell
     absolute magnetization    =     9.72 Bohr mag/cell

     iteration #  7     ecut=   170.00 Ry     beta=0.70
     Davidson diagonalization with overlap
     ethr =  3.77E-05,  avg # of iterations =  1.7

     negative rho (up, down):  0.000E+00 2.702E-04
 
     Magnetic moment per site:
     atom:    1    charge:   12.8279    magn:    1.9569    constr:    0.0000
     atom:    2    charge:   12.8279    magn:    1.9569    constr:    0.0000
     atom:    3    charge:   12.8279    magn:    1.9569    constr:    0.0000
     atom:    4    charge:   12.7728    magn:    2.8103    constr:    0.0000
     atom:    5    charge:    4.1114    magn:    0.0392    constr:    0.0000

     total cpu time spent up to now is      241.5 secs

     total energy              =   -1345.16178154 Ry
     Harris-Foulkes estimate   =   -1345.16366707 Ry
     estimated scf accuracy    <       0.01802120 Ry

     total magnetization       =     9.38 Bohr mag/cell
     absolute magnetization    =     9.71 Bohr mag/cell

     iteration #  8     ecut=   170.00 Ry     beta=0.70
     Davidson diagonalization with overlap
     ethr =  2.61E-05,  avg # of iterations =  2.2

     negative rho (up, down):  0.000E+00 2.580E-04
 
     Magnetic moment per site:
     atom:    1    charge:   12.8310    magn:    1.8622    constr:    0.0000
     atom:    2    charge:   12.8310    magn:    1.8622    constr:    0.0000
     atom:    3    charge:   12.8310    magn:    1.8622    constr:    0.0000
     atom:    4    charge:   12.7753    magn:    2.7248    constr:    0.0000
     atom:    5    charge:    4.1092    magn:    0.0310    constr:    0.0000

     total cpu time spent up to now is      272.3 secs

     total energy              =   -1345.16680079 Ry
     Harris-Foulkes estimate   =   -1345.16582447 Ry
     estimated scf accuracy    <       0.00208391 Ry

     total magnetization       =     9.00 Bohr mag/cell
     absolute magnetization    =     9.35 Bohr mag/cell

     iteration #  9     ecut=   170.00 Ry     beta=0.70
     Davidson diagonalization with overlap
     ethr =  3.02E-06,  avg # of iterations =  2.1

     negative rho (up, down):  0.000E+00 2.854E-04
 
     Magnetic moment per site:
     atom:    1    charge:   12.8289    magn:    1.9952    constr:    0.0000
     atom:    2    charge:   12.8289    magn:    1.9952    constr:    0.0000
     atom:    3    charge:   12.8289    magn:    1.9952    constr:    0.0000
     atom:    4    charge:   12.7743    magn:    2.7573    constr:    0.0000
     atom:    5    charge:    4.1141    magn:    0.0387    constr:    0.0000

     total cpu time spent up to now is      301.6 secs

     total energy              =   -1345.16423711 Ry
     Harris-Foulkes estimate   =   -1345.16762313 Ry
     estimated scf accuracy    <       0.00202460 Ry

     total magnetization       =     8.59 Bohr mag/cell
     absolute magnetization    =     8.96 Bohr mag/cell

     iteration # 10     ecut=   170.00 Ry     beta=0.70
     Davidson diagonalization with overlap
     ethr =  2.93E-06,  avg # of iterations =  1.9

     negative rho (up, down):  0.000E+00 3.508E-04
 
     Magnetic moment per site:
     atom:    1    charge:   12.8274    magn:    2.0792    constr:    0.0000
     atom:    2    charge:   12.8274    magn:    2.0792    constr:    0.0000
     atom:    3    charge:   12.8274    magn:    2.0792    constr:    0.0000
     atom:    4    charge:   12.7753    magn:    2.7409    constr:    0.0000
     atom:    5    charge:    4.1175    magn:    0.0452    constr:    0.0000

     total cpu time spent up to now is      330.5 secs

     total energy              =   -1345.16403215 Ry
     Harris-Foulkes estimate   =   -1345.16568635 Ry
     estimated scf accuracy    <       0.00219881 Ry

     total magnetization       =     9.10 Bohr mag/cell
     absolute magnetization    =     9.44 Bohr mag/cell

     iteration # 11     ecut=   170.00 Ry     beta=0.70
     Davidson diagonalization with overlap
     ethr =  2.93E-06,  avg # of iterations =  1.7

     negative rho (up, down):  0.000E+00 2.160E-04
 
     Magnetic moment per site:
     atom:    1    charge:   12.8342    magn:    1.7220    constr:    0.0000
     atom:    2    charge:   12.8342    magn:    1.7220    constr:    0.0000
     atom:    3    charge:   12.8342    magn:    1.7220    constr:    0.0000
     atom:    4    charge:   12.7752    magn:    2.6955    constr:    0.0000
     atom:    5    charge:    4.1043    magn:    0.0139    constr:    0.0000

     total cpu time spent up to now is      359.1 secs

     total energy              =   -1345.16051998 Ry
     Harris-Foulkes estimate   =   -1345.16452375 Ry
     estimated scf accuracy    <       0.00283952 Ry

     total magnetization       =     9.33 Bohr mag/cell
     absolute magnetization    =     9.67 Bohr mag/cell

     iteration # 12     ecut=   170.00 Ry     beta=0.70
     Davidson diagonalization with overlap
     ethr =  2.93E-06,  avg # of iterations =  3.1

     negative rho (up, down):  0.000E+00 1.637E-04
 
     Magnetic moment per site:
     atom:    1    charge:   12.8414    magn:    1.3201    constr:    0.0000
     atom:    2    charge:   12.8414    magn:    1.3201    constr:    0.0000
     atom:    3    charge:   12.8414    magn:    1.3201    constr:    0.0000
     atom:    4    charge:   12.7745    magn:    2.6496    constr:    0.0000
     atom:    5    charge:    4.0883    magn:   -0.0226    constr:    0.0000

     total cpu time spent up to now is      394.3 secs

     total energy              =   -1345.16137549 Ry
     Harris-Foulkes estimate   =   -1345.16978857 Ry
     estimated scf accuracy    <       0.00119941 Ry

     total magnetization       =     8.19 Bohr mag/cell
     absolute magnetization    =     8.58 Bohr mag/cell

     iteration # 13     ecut=   170.00 Ry     beta=0.70
     Davidson diagonalization with overlap
     ethr =  1.74E-06,  avg # of iterations =  3.4

     negative rho (up, down):  0.000E+00 1.613E-04
 
     Magnetic moment per site:
     atom:    1    charge:   12.8436    magn:    1.2177    constr:    0.0000
     atom:    2    charge:   12.8436    magn:    1.2177    constr:    0.0000
     atom:    3    charge:   12.8436    magn:    1.2177    constr:    0.0000
     atom:    4    charge:   12.7744    magn:    2.6454    constr:    0.0000
     atom:    5    charge:    4.0840    magn:   -0.0327    constr:    0.0000

     total cpu time spent up to now is      434.7 secs

     total energy              =   -1345.16905125 Ry
     Harris-Foulkes estimate   =   -1345.17044582 Ry
     estimated scf accuracy    <       0.00057198 Ry

     total magnetization       =     7.23 Bohr mag/cell
     absolute magnetization    =     7.61 Bohr mag/cell

     iteration # 14     ecut=   170.00 Ry     beta=0.70
     Davidson diagonalization with overlap
     ethr =  8.29E-07,  avg # of iterations =  2.6

     negative rho (up, down):  0.000E+00 1.640E-04
 
     Magnetic moment per site:
     atom:    1    charge:   12.8424    magn:    1.2947    constr:    0.0000
     atom:    2    charge:   12.8424    magn:    1.2947    constr:    0.0000
     atom:    3    charge:   12.8424    magn:    1.2947    constr:    0.0000
     atom:    4    charge:   12.7745    magn:    2.6531    constr:    0.0000
     atom:    5    charge:    4.0860    magn:   -0.0272    constr:    0.0000

     total cpu time spent up to now is      466.8 secs

     total energy              =   -1345.16996247 Ry
     Harris-Foulkes estimate   =   -1345.16969952 Ry
     estimated scf accuracy    <       0.00126088 Ry

     total magnetization       =     6.99 Bohr mag/cell
     absolute magnetization    =     7.36 Bohr mag/cell

     iteration # 15     ecut=   170.00 Ry     beta=0.70
     Davidson diagonalization with overlap
     ethr =  8.29E-07,  avg # of iterations =  2.1

     negative rho (up, down):  0.000E+00 1.650E-04
 
     Magnetic moment per site:
     atom:    1    charge:   12.8429    magn:    1.2943    constr:    0.0000
     atom:    2    charge:   12.8429    magn:    1.2943    constr:    0.0000
     atom:    3    charge:   12.8429    magn:    1.2943    constr:    0.0000
     atom:    4    charge:   12.7750    magn:    2.6620    constr:    0.0000
     atom:    5    charge:    4.0852    magn:   -0.0316    constr:    0.0000

     total cpu time spent up to now is      496.6 secs

     total energy              =   -1345.17042179 Ry
     Harris-Foulkes estimate   =   -1345.17034041 Ry
     estimated scf accuracy    <       0.00073323 Ry

     total magnetization       =     7.18 Bohr mag/cell
     absolute magnetization    =     7.55 Bohr mag/cell

     iteration # 16     ecut=   170.00 Ry     beta=0.70
     Davidson diagonalization with overlap
     ethr =  8.29E-07,  avg # of iterations =  1.0

     negative rho (up, down):  0.000E+00 1.834E-04
 
     Magnetic moment per site:
     atom:    1    charge:   12.8388    magn:    1.5004    constr:    0.0000
     atom:    2    charge:   12.8388    magn:    1.5004    constr:    0.0000
     atom:    3    charge:   12.8388    magn:    1.5004    constr:    0.0000
     atom:    4    charge:   12.7744    magn:    2.6875    constr:    0.0000
     atom:    5    charge:    4.0909    magn:   -0.0188    constr:    0.0000

     total cpu time spent up to now is      525.3 secs

     total energy              =   -1345.16808250 Ry
     Harris-Foulkes estimate   =   -1345.17043577 Ry
     estimated scf accuracy    <       0.00072621 Ry

     total magnetization       =     7.19 Bohr mag/cell
     absolute magnetization    =     7.55 Bohr mag/cell

     iteration # 17     ecut=   170.00 Ry     beta=0.70
     Davidson diagonalization with overlap
     ethr =  8.29E-07,  avg # of iterations =  3.1

     negative rho (up, down):  0.000E+00 1.835E-04
 
     Magnetic moment per site:
     atom:    1    charge:   12.8386    magn:    1.5054    constr:    0.0000
     atom:    2    charge:   12.8386    magn:    1.5054    constr:    0.0000
     atom:    3    charge:   12.8386    magn:    1.5054    constr:    0.0000
     atom:    4    charge:   12.7744    magn:    2.6851    constr:    0.0000
     atom:    5    charge:    4.0914    magn:   -0.0175    constr:    0.0000

     total cpu time spent up to now is      562.5 secs

     total energy              =   -1345.17084735 Ry
     Harris-Foulkes estimate   =   -1345.17085310 Ry
     estimated scf accuracy    <       0.00079085 Ry

     total magnetization       =     7.74 Bohr mag/cell
     absolute magnetization    =     8.09 Bohr mag/cell

     iteration # 18     ecut=   170.00 Ry     beta=0.70
     Davidson diagonalization with overlap
     ethr =  8.29E-07,  avg # of iterations =  1.0

     negative rho (up, down):  0.000E+00 1.848E-04
 
     Magnetic moment per site:
     atom:    1    charge:   12.8364    magn:    1.5531    constr:    0.0000
     atom:    2    charge:   12.8364    magn:    1.5531    constr:    0.0000
     atom:    3    charge:   12.8364    magn:    1.5531    constr:    0.0000
     atom:    4    charge:   12.7740    magn:    2.6672    constr:    0.0000
     atom:    5    charge:    4.0961    magn:   -0.0037    constr:    0.0000

     total cpu time spent up to now is      590.3 secs

     total energy              =   -1345.17062040 Ry
     Harris-Foulkes estimate   =   -1345.17084990 Ry
     estimated scf accuracy    <       0.00067824 Ry

     total magnetization       =     7.75 Bohr mag/cell
     absolute magnetization    =     8.10 Bohr mag/cell

     iteration # 19     ecut=   170.00 Ry     beta=0.70
     Davidson diagonalization with overlap
     ethr =  8.29E-07,  avg # of iterations =  2.0

     negative rho (up, down):  0.000E+00 1.824E-04
 
     Magnetic moment per site:
     atom:    1    charge:   12.8365    magn:    1.5408    constr:    0.0000
     atom:    2    charge:   12.8365    magn:    1.5408    constr:    0.0000
     atom:    3    charge:   12.8365    magn:    1.5408    constr:    0.0000
     atom:    4    charge:   12.7739    magn:    2.6652    constr:    0.0000
     atom:    5    charge:    4.0957    magn:   -0.0043    constr:    0.0000

     total cpu time spent up to now is      620.1 secs

     total energy              =   -1345.17084153 Ry
     Harris-Foulkes estimate   =   -1345.17080994 Ry
     estimated scf accuracy    <       0.00011975 Ry

     total magnetization       =     7.85 Bohr mag/cell
     absolute magnetization    =     8.20 Bohr mag/cell

     iteration # 20     ecut=   170.00 Ry     beta=0.70
     Davidson diagonalization with overlap
     ethr =  1.74E-07,  avg # of iterations =  1.1

     negative rho (up, down):  0.000E+00 1.718E-04
 
     Magnetic moment per site:
     atom:    1    charge:   12.8374    magn:    1.4809    constr:    0.0000
     atom:    2    charge:   12.8374    magn:    1.4809    constr:    0.0000
     atom:    3    charge:   12.8374    magn:    1.4809    constr:    0.0000
     atom:    4    charge:   12.7737    magn:    2.6549    constr:    0.0000
     atom:    5    charge:    4.0943    magn:   -0.0055    constr:    0.0000

     total cpu time spent up to now is      648.6 secs

     total energy              =   -1345.17070032 Ry
     Harris-Foulkes estimate   =   -1345.17085202 Ry
     estimated scf accuracy    <       0.00010569 Ry

     total magnetization       =     7.82 Bohr mag/cell
     absolute magnetization    =     8.17 Bohr mag/cell

     iteration # 21     ecut=   170.00 Ry     beta=0.70
     Davidson diagonalization with overlap
     ethr =  1.53E-07,  avg # of iterations =  3.0

     negative rho (up, down):  0.000E+00 1.714E-04
 
     Magnetic moment per site:
     atom:    1    charge:   12.8373    magn:    1.4823    constr:    0.0000
     atom:    2    charge:   12.8373    magn:    1.4823    constr:    0.0000
     atom:    3    charge:   12.8373    magn:    1.4823    constr:    0.0000
     atom:    4    charge:   12.7738    magn:    2.6536    constr:    0.0000
     atom:    5    charge:    4.0947    magn:   -0.0044    constr:    0.0000

     total cpu time spent up to now is      682.9 secs

     total energy              =   -1345.17093240 Ry
     Harris-Foulkes estimate   =   -1345.17093466 Ry
     estimated scf accuracy    <       0.00001244 Ry

     total magnetization       =     7.67 Bohr mag/cell
     absolute magnetization    =     8.02 Bohr mag/cell

     iteration # 22     ecut=   170.00 Ry     beta=0.70
     Davidson diagonalization with overlap
     ethr =  1.80E-08,  avg # of iterations =  1.4

     negative rho (up, down):  0.000E+00 1.719E-04
 
     Magnetic moment per site:
     atom:    1    charge:   12.8374    magn:    1.4835    constr:    0.0000
     atom:    2    charge:   12.8374    magn:    1.4835    constr:    0.0000
     atom:    3    charge:   12.8374    magn:    1.4835    constr:    0.0000
     atom:    4    charge:   12.7738    magn:    2.6544    constr:    0.0000
     atom:    5    charge:    4.0948    magn:   -0.0043    constr:    0.0000

     total cpu time spent up to now is      710.9 secs

     total energy              =   -1345.17093313 Ry
     Harris-Foulkes estimate   =   -1345.17093333 Ry
     estimated scf accuracy    <       0.00000556 Ry

     total magnetization       =     7.67 Bohr mag/cell
     absolute magnetization    =     8.02 Bohr mag/cell

     iteration # 23     ecut=   170.00 Ry     beta=0.70
     Davidson diagonalization with overlap
     ethr =  8.06E-09,  avg # of iterations =  1.5

     negative rho (up, down):  0.000E+00 1.722E-04
 
     Magnetic moment per site:
     atom:    1    charge:   12.8375    magn:    1.4844    constr:    0.0000
     atom:    2    charge:   12.8375    magn:    1.4844    constr:    0.0000
     atom:    3    charge:   12.8375    magn:    1.4844    constr:    0.0000
     atom:    4    charge:   12.7739    magn:    2.6546    constr:    0.0000
     atom:    5    charge:    4.0948    magn:   -0.0041    constr:    0.0000

     total cpu time spent up to now is      739.7 secs

     total energy              =   -1345.17093370 Ry
     Harris-Foulkes estimate   =   -1345.17093367 Ry
     estimated scf accuracy    <       0.00000064 Ry

     total magnetization       =     7.67 Bohr mag/cell
     absolute magnetization    =     8.02 Bohr mag/cell

     iteration # 24     ecut=   170.00 Ry     beta=0.70
     Davidson diagonalization with overlap
     ethr =  9.34E-10,  avg # of iterations =  2.8

     negative rho (up, down):  0.000E+00 1.723E-04
 
     Magnetic moment per site:
     atom:    1    charge:   12.8374    magn:    1.4859    constr:    0.0000
     atom:    2    charge:   12.8374    magn:    1.4859    constr:    0.0000
     atom:    3    charge:   12.8374    magn:    1.4859    constr:    0.0000
     atom:    4    charge:   12.7739    magn:    2.6543    constr:    0.0000
     atom:    5    charge:    4.0947    magn:   -0.0040    constr:    0.0000

     total cpu time spent up to now is      770.8 secs

     total energy              =   -1345.17093391 Ry
     Harris-Foulkes estimate   =   -1345.17093394 Ry
     estimated scf accuracy    <       0.00000006 Ry

     total magnetization       =     7.67 Bohr mag/cell
     absolute magnetization    =     8.02 Bohr mag/cell

     iteration # 25     ecut=   170.00 Ry     beta=0.70
     Davidson diagonalization with overlap
     ethr =  8.00E-11,  avg # of iterations =  3.0

     negative rho (up, down):  0.000E+00 1.723E-04
 
     Magnetic moment per site:
     atom:    1    charge:   12.8374    magn:    1.4867    constr:    0.0000
     atom:    2    charge:   12.8374    magn:    1.4867    constr:    0.0000
     atom:    3    charge:   12.8374    magn:    1.4867    constr:    0.0000
     atom:    4    charge:   12.7739    magn:    2.6540    constr:    0.0000
     atom:    5    charge:    4.0948    magn:   -0.0037    constr:    0.0000

     total cpu time spent up to now is      805.8 secs

     total energy              =   -1345.17093403 Ry
     Harris-Foulkes estimate   =   -1345.17093412 Ry
     estimated scf accuracy    <       0.00000039 Ry

     total magnetization       =     7.68 Bohr mag/cell
     absolute magnetization    =     8.03 Bohr mag/cell

     iteration # 26     ecut=   170.00 Ry     beta=0.70
     Davidson diagonalization with overlap
     ethr =  8.00E-11,  avg # of iterations =  3.0

     negative rho (up, down):  0.000E+00 1.723E-04
 
     Magnetic moment per site:
     atom:    1    charge:   12.8374    magn:    1.4869    constr:    0.0000
     atom:    2    charge:   12.8374    magn:    1.4869    constr:    0.0000
     atom:    3    charge:   12.8374    magn:    1.4869    constr:    0.0000
     atom:    4    charge:   12.7739    magn:    2.6539    constr:    0.0000
     atom:    5    charge:    4.0948    magn:   -0.0037    constr:    0.0000

     total cpu time spent up to now is      840.5 secs

     End of self-consistent calculation

 ------ SPIN UP ------------


          k = 0.0000 0.0000 0.0000 ( 12533 PWs)   bands (ev):

   -69.9379 -69.2594 -69.2051 -69.2051 -35.9988 -35.9988 -35.9988 -35.6156
   -35.6156 -35.6156 -35.1584 -35.1584 -35.1584 -35.1518 -35.1518 -35.1518
     0.3456  11.4281  13.3303  13.3303  13.3303  13.8396  13.8396  14.1052
    14.1052  14.1052  16.0924  16.0924  16.0924  17.1987  17.1987  17.8463
    17.8463  18.3988  18.3988  18.3988  18.4661  18.4661  18.4661  18.4679
    21.8878  23.7552

          k = 0.0000 0.0000 0.1111 ( 12537 PWs)   bands (ev):

   -69.9378 -69.2580 -69.2065 -69.2051 -35.9978 -35.9978 -35.9974 -35.6144
   -35.6144 -35.6134 -35.1595 -35.1595 -35.1587 -35.1567 -35.1530 -35.1530
     0.4152  11.4854  12.9272  13.1104  13.1104  13.9190  13.9306  14.1575
    14.3442  14.3442  16.0278  16.1463  16.1463  17.2218  17.2575  17.8148
    17.8704  18.3141  18.3141  18.3987  18.3987  18.3990  18.4068  18.4650
    21.9638  23.2362

          k = 0.0000 0.0000 0.2222 ( 12549 PWs)   bands (ev):

   -69.9375 -69.2541 -69.2107 -69.2050 -35.9953 -35.9953 -35.9940 -35.6114
   -35.6114 -35.6074 -35.1692 -35.1623 -35.1623 -35.1595 -35.1559 -35.1559
     0.6003  11.3378  12.5044  12.7673  12.7673  14.0812  14.1354  14.3092
    14.7511  14.7511  15.8450  16.2723  16.2723  17.1945  17.2861  17.7246
    17.7689  17.9545  17.9545  18.2398  18.3993  18.4020  18.4020  18.4622
    22.1777  22.5169

          k = 0.0000 0.0000 0.3333 ( 12553 PWs)   bands (ev):

   -69.9372 -69.2484 -69.2167 -69.2050 -35.9925 -35.9925 -35.9901 -35.6079
   -35.6079 -35.5999 -35.1842 -35.1660 -35.1660 -35.1603 -35.1587 -35.1587
     0.8281  10.6697  12.4974  12.4974  12.8460  14.1977  14.4173  14.5425
    15.1429  15.1429  15.5762  16.3646  16.3646  16.9837  17.3215  17.3620
    17.5819  17.5819  17.6127  18.0175  18.3998  18.4150  18.4150  18.4594
    22.0443  22.5718

          k = 0.0000 0.0000 0.4444 ( 12544 PWs)   bands (ev):

   -69.9371 -69.2431 -69.2222 -69.2050 -35.9906 -35.9906 -35.9876 -35.6055
   -35.6055 -35.5946 -35.1943 -35.1686 -35.1686 -35.1608 -35.1604 -35.1604
     0.9889  10.1829  12.3531  12.3531  13.4007  14.1249  14.6317  14.8082
    15.2873  15.4352  15.4352  16.3332  16.3332  16.7318  16.9442  17.3466
    17.3748  17.3748  17.6402  17.8048  18.4000  18.4302  18.4302  18.4577
    21.9111  22.7896

          k = 0.0000 0.1111 0.1111 ( 12557 PWs)   bands (ev):

   -69.9377 -69.2567 -69.2072 -69.2058 -35.9982 -35.9969 -35.9952 -35.6255
   -35.6132 -35.5991 -35.1698 -35.1604 -35.1600 -35.1568 -35.1543 -35.1480
     0.4850  11.5393  12.6986  12.8569  12.9538  13.9962  14.0040  14.2126
    14.4872  14.5137  16.0041  16.1630  16.1928  17.2491  17.2731  17.7262
    17.7835  18.2263  18.2642  18.3186  18.3248  18.4104  18.4795  18.5430
    22.0244  23.4381

          k = 0.0000 0.1111 0.2222 ( 12548 PWs)   bands (ev):

   -69.9375 -69.2528 -69.2110 -69.2061 -35.9966 -35.9945 -35.9919 -35.6331
   -35.6100 -35.5831 -35.1851 -35.1649 -35.1632 -35.1579 -35.1573 -35.1436
     0.6703  11.3589  12.2605  12.6631  12.6765  14.1573  14.2067  14.3626
    14.8145  14.8591  15.8419  16.2815  16.2890  17.1600  17.3239  17.4383
    17.5845  17.9117  18.1403  18.1987  18.2425  18.3841  18.5588  18.6828
    22.2030  22.6702

          k = 0.0000 0.1111 0.3333 ( 12541 PWs)   bands (ev):

   -69.9372 -69.2473 -69.2168 -69.2061 -35.9939 -35.9917 -35.9893 -35.6368
   -35.6063 -35.5691 -35.2004 -35.1700 -35.1668 -35.1603 -35.1599 -35.1414
     0.8986  10.6614  12.1385  12.4161  12.9460  14.2827  14.4860  14.5916
    15.1753  15.2148  15.5805  16.2917  16.3935  16.9295  17.0980  17.2662
    17.4906  17.5579  17.8569  18.0738  18.1802  18.3777  18.6304  18.6763
    22.2619  22.4506

          k = 0.0000 0.1111 0.4444 ( 12514 PWs)   bands (ev):

   -69.9370 -69.2420 -69.2222 -69.2061 -35.9914 -35.9899 -35.9883 -35.6381
   -35.6039 -35.5607 -35.2101 -35.1732 -35.1694 -35.1621 -35.1613 -35.1405
     1.0599  10.1714  12.0377  12.2807  13.4694  14.2195  14.7010  14.8579
    15.2908  15.4591  15.4818  16.1375  16.3911  16.6629  16.8644  17.2559
    17.3560  17.4660  17.7084  17.8999  18.1440  18.3756  18.6544  18.6764
    22.1433  22.6125

          k = 0.0000 0.2222 0.2222 ( 12528 PWs)   bands (ev):

   -69.9373 -69.2492 -69.2127 -69.2082 -35.9969 -35.9922 -35.9898 -35.6516
   -35.6065 -35.5576 -35.2064 -35.1675 -35.1655 -35.1609 -35.1596 -35.1300
     0.8565  11.2948  11.5676  12.4409  12.7896  14.3577  14.3837  14.5052
    15.0144  15.1105  15.7600  16.2750  16.3631  17.0230  17.0281  17.3106
    17.4589  17.7428  18.0348  18.0891  18.2582  18.3354  18.7091  18.9948
    22.1162  22.9987

          k = 0.0000 0.2222 0.3333 ( 12527 PWs)   bands (ev):

   -69.9370 -69.2439 -69.2172 -69.2091 -35.9955 -35.9897 -35.9891 -35.6640
   -35.6024 -35.5369 -35.2245 -35.1704 -35.1687 -35.1645 -35.1619 -35.1210
     1.0865  10.6285  11.3678  12.2333  13.1803  14.5165  14.6613  14.7165
    15.2790  15.3909  15.5582  16.0663  16.4961  16.7581  16.8090  17.1022
    17.4759  17.6362  17.8034  17.9585  18.1972  18.3525  18.8364  19.0298
    21.9459  22.8237

          k = 0.0000 0.2222 0.4444 ( 12515 PWs)   bands (ev):

   -69.9369 -69.2387 -69.2223 -69.2093 -35.9932 -35.9902 -35.9880 -35.6701
   -35.5996 -35.5251 -35.2349 -35.1723 -35.1713 -35.1664 -35.1635 -35.1165
     1.2492  10.1369  11.3033  12.1147  13.6799  14.4694  14.8909  14.9681
    15.2995  15.4961  15.5999  15.8226  16.5518  16.5535  16.6118  17.0969
    17.2984  17.5292  17.8755  17.8803  18.1781  18.2119  18.9130  18.9635
    21.9130  22.7459

          k = 0.0000 0.3333 0.3333 ( 12518 PWs)   bands (ev):

   -69.9368 -69.2390 -69.2189 -69.2125 -35.9959 -35.9904 -35.9874 -35.6835
   -35.5978 -35.5116 -35.2441 -35.1712 -35.1704 -35.1690 -35.1644 -35.1062
     1.3189  10.5583  10.5960  12.0539  13.5743  14.8386  14.8435  14.8885
    15.4142  15.4604  15.5954  15.7406  16.5556  16.6485  16.6581  16.8988
    17.3285  17.6097  17.7589  17.9058  18.0442  18.5484  19.0048  19.1750
    21.2663  23.3558

          k = 0.0000 0.3333 0.4444 ( 12517 PWs)   bands (ev):

   -69.9367 -69.2339 -69.2225 -69.2141 -35.9949 -35.9926 -35.9859 -35.6935
   -35.5947 -35.4975 -35.2549 -35.1735 -35.1714 -35.1703 -35.1662 -35.0985
     1.4839  10.0901  10.5352  11.9485  14.0225  14.7994  15.0852  15.1284
    15.2955  15.5102  15.5584  15.7469  16.4021  16.4743  16.7780  16.8319
    17.2036  17.4003  17.6215  17.9746  18.1743  18.5814  19.1034  19.1304
    20.9082  23.4490

          k = 0.0000 0.4444 0.4444 ( 12492 PWs)   bands (ev):

   -69.9366 -69.2283 -69.2229 -69.2192 -35.9955 -35.9947 -35.9846 -35.7058
   -35.5914 -35.4823 -35.2659 -35.1749 -35.1746 -35.1690 -35.1681 -35.0889
     1.6508  10.0558  10.0563  11.8498  14.3682  15.0248  15.1861  15.2542
    15.2592  15.4093  15.5747  15.8596  16.3143  16.3961  16.5770  16.9873
    17.1140  17.2353  17.4102  17.8583  18.3845  18.9448  19.1756  19.2135
    20.1308  23.9985

          k = 0.1111 0.1111 0.1111 ( 12563 PWs)   bands (ev):

   -69.9376 -69.2554 -69.2072 -69.2072 -35.9975 -35.9975 -35.9929 -35.6377
   -35.5979 -35.5979 -35.1728 -35.1691 -35.1691 -35.1500 -35.1482 -35.1482
     0.5549  11.5894  12.5637  12.5637  12.8356  14.0720  14.0720  14.3899
    14.3899  14.7344  15.9888  16.2025  16.2025  17.2672  17.2672  17.6646
    17.6646  17.9914  18.1239  18.3446  18.3446  18.4203  18.6415  18.6415
    22.0746  23.5626

          k = 0.1111 0.1111 0.2222 ( 12529 PWs)   bands (ev):

   -69.9374 -69.2516 -69.2112 -69.2072 -35.9965 -35.9957 -35.9897 -35.6499
   -35.5950 -35.5775 -35.1894 -35.1794 -35.1708 -35.1503 -35.1453 -35.1430
     0.7405  11.3710  12.1432  12.2979  12.7589  14.2326  14.2777  14.4628
    14.7624  15.0135  15.8444  16.2850  16.2955  17.1765  17.2946  17.3843
    17.4081  17.7638  17.9275  18.2180  18.3456  18.3569  18.8025  18.8333
    22.2211  22.8349

          k = 0.1111 0.1111 0.3333 ( 12526 PWs)   bands (ev):

   -69.9371 -69.2461 -69.2169 -69.2072 -35.9937 -35.9936 -35.9878 -35.6573
   -35.5916 -35.5601 -35.2056 -35.1881 -35.1719 -35.1520 -35.1460 -35.1389
     0.9694  10.6462  12.0641  12.0769  13.0384  14.3640  14.5549  14.6651
    15.1713  15.2807  15.5910  16.2782  16.3445  16.9170  17.0713  17.1121
    17.4313  17.6067  17.7047  18.0901  18.2508  18.3344  18.6816  18.9929
    22.4191  22.4436

          k = 0.1111 0.1111 0.4444 ( 12521 PWs)   bands (ev):

   -69.9369 -69.2409 -69.2223 -69.2071 -35.9923 -35.9904 -35.9880 -35.6607
   -35.5894 -35.5499 -35.2156 -35.1931 -35.1724 -35.1532 -35.1475 -35.1369
     1.1312  10.1543  11.9341  12.0078  13.5366  14.3075  14.7711  14.9234
    15.3011  15.4553  15.5308  16.0758  16.2782  16.6260  16.9678  17.0975
    17.3345  17.4995  17.7097  17.9306  18.1849  18.3242  18.5244  19.0844
    22.3371  22.5625

          k = 0.1111 0.2222 0.2222 ( 12537 PWs)   bands (ev):

   -69.9372 -69.2481 -69.2127 -69.2093 -35.9969 -35.9948 -35.9874 -35.6700
   -35.5858 -35.5567 -35.2075 -35.1845 -35.1810 -35.1459 -35.1450 -35.1303
     0.9273  11.2971  11.4891  12.0699  12.8957  14.4282  14.4567  14.6314
    14.9392  15.2091  15.7704  16.2699  16.3404  17.0321  17.0922  17.2144
    17.3961  17.5445  17.7227  18.2485  18.2502  18.3222  19.0782  19.1110
    22.1898  23.1066

          k = 0.1111 0.2222 0.3333 ( 12525 PWs)   bands (ev):

   -69.9370 -69.2429 -69.2173 -69.2100 -35.9959 -35.9933 -35.9867 -35.6843
   -35.5814 -35.5354 -35.2248 -35.1932 -35.1832 -35.1468 -35.1436 -35.1211
     1.1580  10.5981  11.3113  11.9148  13.2658  14.5776  14.7282  14.8338
    15.2640  15.3769  15.5838  16.1025  16.3723  16.7654  16.9130  17.0317
    17.4423  17.4786  17.6150  18.1525  18.1981  18.2549  18.9971  19.3342
    22.0572  22.8864

          k = 0.1111 0.2222 0.4444 ( 12540 PWs)   bands (ev):

   -69.9368 -69.2379 -69.2223 -69.2101 -35.9942 -35.9920 -35.9876 -35.6914
   -35.5788 -35.5229 -35.2349 -35.1988 -35.1836 -35.1476 -35.1436 -35.1165
     1.3215  10.1073  11.2413  11.8218  13.7359  14.5294  14.9596  15.0712
    15.3035  15.4788  15.6040  15.8651  16.2992  16.5435  16.8773  16.9678
    17.3029  17.4484  17.7968  18.0508  18.1013  18.2337  18.7433  19.4757
    22.0154  22.8359

          k = 0.1111 0.3333 0.3333 ( 12528 PWs)   bands (ev):

   -69.9368 -69.2382 -69.2189 -69.2133 -35.9966 -35.9933 -35.9868 -35.7044
   -35.5759 -35.5111 -35.2430 -35.1946 -35.1918 -35.1450 -35.1436 -35.1063
     1.3917  10.5243  10.5393  11.7569  13.6361  14.8226  14.9039  15.0688
    15.3300  15.4722  15.5696  15.9051  16.3670  16.6365  16.7528  16.9587
    17.3281  17.3358  17.7958  18.0119  18.1092  18.3400  19.2240  19.4684
    21.3620  23.2566

          k = 0.1111 0.3333 0.4444 ( 12508 PWs)   bands (ev):

   -69.9367 -69.2333 -69.2225 -69.2146 -35.9960 -35.9942 -35.9871 -35.7150
   -35.5729 -35.4971 -35.2533 -35.1990 -35.1931 -35.1448 -35.1435 -35.0985
     1.5578  10.0488  10.4834  11.6624  14.0411  14.7951  15.0912  15.2864
    15.2945  15.5094  15.5625  15.9178  16.2901  16.4463  16.7284  16.9212
    17.2032  17.3111  17.8572  17.9769  18.0308  18.4894  19.0175  19.6598
    20.9542  23.3828

          k = 0.1111 0.4444 0.4444 ( 12499 PWs)   bands (ev):

   -69.9366 -69.2280 -69.2229 -69.2195 -35.9967 -35.9960 -35.9869 -35.7276
   -35.5697 -35.4823 -35.2635 -35.1988 -35.1984 -35.1438 -35.1435 -35.0889
     1.7260  10.0075  10.0094  11.5676  14.3232  14.9817  15.0455  15.2046
    15.5462  15.5519  15.6301  16.0539  16.2562  16.3622  16.5046  16.9242
    17.1743  17.2218  17.6752  17.9349  18.0859  18.8783  19.1709  19.7005
    20.1200  23.7366

          k = 0.2222 0.2222 0.2222 ( 12524 PWs)   bands (ev):

   -69.9370 -69.2449 -69.2126 -69.2126 -35.9968 -35.9968 -35.9857 -35.6957
   -35.5544 -35.5544 -35.2150 -35.1977 -35.1977 -35.1328 -35.1328 -35.1287
     1.1157  11.2709  11.3112  11.3112  13.1134  14.6224  14.6224  14.9421
    14.9421  15.3044  15.7317  16.2797  16.2797  16.9694  16.9694  17.2827
    17.2827  17.2925  17.4276  18.2289  18.2289  18.3823  19.4151  19.4151
    22.2838  23.0623

          k = 0.2222 0.2222 0.3333 ( 12517 PWs)   bands (ev):

   -69.9368 -69.2402 -69.2175 -69.2126 -35.9967 -35.9967 -35.9863 -35.7148
   -35.5517 -35.5284 -35.2290 -35.2106 -35.2004 -35.1327 -35.1250 -35.1192
     1.3491  10.5169  11.1354  11.2355  13.4789  14.7339  14.8920  15.1008
    15.2919  15.2959  15.6689  16.1482  16.2343  16.7244  16.7864  17.1820
    17.1850  17.3776  17.5210  18.1620  18.2201  18.3169  19.2422  19.7645
    22.2490  22.6938

          k = 0.2222 0.2222 0.4444 ( 12513 PWs)   bands (ev):

   -69.9367 -69.2354 -69.2224 -69.2126 -35.9967 -35.9950 -35.9884 -35.7248
   -35.5499 -35.5137 -35.2380 -35.2177 -35.2006 -35.1333 -35.1216 -35.1138
     1.5148  10.0325  11.0317  11.1936  13.8848  14.6647  15.1474  15.1482
    15.4033  15.4925  15.6118  15.9870  16.1839  16.4975  16.7717  17.0068
    17.1470  17.5603  17.7236  18.0970  18.1971  18.2426  18.8112  20.0148
    22.2605  22.3757

          k = 0.2222 0.3333 0.3333 ( 12520 PWs)   bands (ev):

   -69.9367 -69.2360 -69.2189 -69.2155 -35.9985 -35.9976 -35.9881 -35.7387
   -35.5391 -35.5099 -35.2409 -35.2159 -35.2124 -35.1239 -35.1225 -35.1064
     1.5865  10.4048  10.4372  11.0622  13.7834  14.8929  14.9973  15.1538
    15.4039  15.4572  15.8016  16.1028  16.2136  16.6141  16.6343  16.9622
    17.3042  17.3493  17.6464  18.1533  18.2327  18.2826  19.4030  19.9187
    21.6315  22.6894

          k = 0.2222 0.3333 0.4444 ( 12507 PWs)   bands (ev):

   -69.9366 -69.2316 -69.2225 -69.2163 -35.9988 -35.9977 -35.9907 -35.7514
   -35.5358 -35.4957 -35.2493 -35.2218 -35.2138 -35.1235 -35.1185 -35.0985
     1.7557   9.9479  10.3579  10.9828  14.0724  14.8049  15.0274  15.2237
    15.4900  15.7148  15.8752  16.1622  16.1880  16.4234  16.6204  16.8040
    17.2862  17.5124  17.7758  18.1067  18.1700  18.3885  19.0271  20.2486
    21.0541  22.6442

          k = 0.2222 0.4444 0.4444 ( 12518 PWs)   bands (ev):

   -69.9365 -69.2272 -69.2229 -69.2202 -35.9997 -35.9994 -35.9928 -35.7658
   -35.5314 -35.4821 -35.2576 -35.2215 -35.2208 -35.1186 -35.1184 -35.0889
     1.9279   9.8899   9.8972  10.8925  14.2096  14.8980  14.9498  15.0891
    15.6722  16.0015  16.1139  16.2025  16.2637  16.3989  16.5124  16.6598
    17.4070  17.4419  17.8217  17.9834  18.1016  18.7649  19.1474  19.9410
    20.4400  22.9023

          k = 0.3333 0.3333 0.3333 ( 12505 PWs)   bands (ev):

   -69.9366 -69.2327 -69.2188 -69.2188 -36.0005 -36.0005 -35.9918 -35.7664
   -35.5085 -35.5085 -35.2420 -35.2277 -35.2277 -35.1089 -35.1089 -35.1044
     1.8295  10.2648  10.2648  10.4019  13.9571  14.9421  14.9946  14.9946
    15.6693  15.6693  16.1352  16.2182  16.2182  16.5754  16.5754  16.7370
    17.4738  17.5588  17.5588  18.2043  18.2043  18.3428  19.7540  19.7540
    21.9453  21.9453

          k = 0.3333 0.3333 0.4444 ( 12520 PWs)   bands (ev):

   -69.9365 -69.2290 -69.2225 -69.2188 -36.0019 -36.0011 -35.9955 -35.7814
   -35.5076 -35.4916 -35.2471 -35.2358 -35.2291 -35.1077 -35.1011 -35.0972
     2.0036   9.8388  10.1796  10.3016  14.0869  14.8130  14.9325  15.0659
    15.7098  15.9686  16.2186  16.2973  16.3761  16.5447  16.5854  16.7069
    17.4822  17.6858  17.7214  18.2228  18.2883  18.3199  19.0867  20.2695
    21.0595  21.9464

          k = 0.3333 0.4444 0.4444 ( 12510 PWs)   bands (ev):

   -69.9365 -69.2260 -69.2229 -69.2214 -36.0032 -36.0031 -35.9994 -35.7978
   -35.4993 -35.4818 -35.2510 -35.2376 -35.2369 -35.0995 -35.0992 -35.0889
     2.1818   9.7652   9.7774  10.1657  14.0872  14.8237  14.8780  14.9433
    15.8648  16.0632  16.2514  16.2633  16.4468  16.8099  16.8159  16.9892
    17.6313  17.6608  17.7497  18.2083  18.2607  18.5491  19.0744  19.6186
    20.9372  21.9310

          k = 0.4444 0.4444 0.4444 ( 12559 PWs)   bands (ev):

   -69.9365 -69.2245 -69.2228 -69.2228 -36.0053 -36.0053 -36.0040 -35.8154
   -35.4817 -35.4817 -35.2475 -35.2453 -35.2453 -35.0892 -35.0892 -35.0885
     2.3652   9.6882   9.6882   9.7165  14.0124  14.7929  14.8334  14.8334
    16.0116  16.0116  16.2633  16.2633  16.3298  17.4466  17.4466  17.4747
    17.7443  17.7443  17.9042  18.3150  18.3150  18.3178  18.9399  18.9399
    21.2444  21.2444

 ------ SPIN DOWN ----------


          k = 0.0000 0.0000 0.0000 ( 12533 PWs)   bands (ev):

   -67.3637 -67.3029 -67.3029 -66.5337 -33.9869 -33.9869 -33.9869 -33.2308
   -33.2308 -33.2308 -33.1920 -33.1920 -33.1920 -32.6392 -32.6392 -32.6392
     0.4462  11.7276  13.3946  13.3946  13.3946  15.2106  15.2106  15.5334
    15.5334  15.5334  18.0409  18.0409  18.0409  18.7043  18.7043  20.2813
    20.2813  20.2813  20.4080  20.4080  20.5090  20.8705  20.8705  20.8705
    23.0631  23.9612

          k = 0.0000 0.0000 0.1111 ( 12537 PWs)   bands (ev):

   -67.3620 -67.3045 -67.3029 -66.5338 -33.9857 -33.9857 -33.9852 -33.2311
   -33.2297 -33.2297 -33.1932 -33.1932 -33.1924 -32.6421 -32.6404 -32.6404
     0.5151  11.7585  13.0941  13.2811  13.2811  15.2704  15.3099  15.5905
    15.6865  15.6865  17.9632  18.1033  18.1033  18.7108  18.8011  20.2356
    20.2356  20.2815  20.3475  20.3643  20.4462  20.6201  20.6201  20.8706
    23.1045  23.6076

          k = 0.0000 0.0000 0.2222 ( 12549 PWs)   bands (ev):

   -67.3573 -67.3090 -67.3029 -66.5340 -33.9826 -33.9826 -33.9808 -33.2321
   -33.2272 -33.2272 -33.1960 -33.1960 -33.1933 -32.6494 -32.6434 -32.6434
     0.6979  11.5209  12.8545  13.0418  13.0418  15.3355  15.5855  15.7542
    16.0358  16.0358  17.7478  18.2770  18.2770  18.7202  18.8136  19.9885
    19.9885  20.1242  20.1426  20.2198  20.2198  20.2819  20.3764  20.8707
    23.0980  23.2962

          k = 0.0000 0.0000 0.3333 ( 12553 PWs)   bands (ev):

   -67.3504 -67.3156 -67.3029 -66.5342 -33.9790 -33.9790 -33.9757 -33.2332
   -33.2243 -33.2243 -33.1991 -33.1991 -33.1943 -32.6578 -32.6470 -32.6470
     0.9223  10.8624  12.8208  12.8208  13.2716  15.2191  15.9594  15.9953
    16.4086  16.4086  17.4485  18.5179  18.5179  18.5890  18.7023  19.4683
    19.4683  19.7687  19.8261  20.0523  20.0523  20.2825  20.3214  20.8710
    22.9353  23.5436

          k = 0.0000 0.0000 0.4444 ( 12544 PWs)   bands (ev):

   -67.3439 -67.3220 -67.3028 -66.5344 -33.9767 -33.9767 -33.9724 -33.2339
   -33.2225 -33.2225 -33.2011 -33.2011 -33.1949 -32.6634 -32.6493 -32.6493
     1.0802  10.3963  12.6954  12.6954  13.9345  14.7946  16.2267  16.2615
    16.6607  16.6607  17.1793  18.4153  18.6438  18.7635  18.7635  19.0529
    19.0529  19.4979  19.6035  19.9431  19.9431  20.2828  20.2853  20.8711
    22.9012  23.7475

          k = 0.0000 0.1111 0.1111 ( 12557 PWs)   bands (ev):

   -67.3604 -67.3052 -67.3037 -66.5338 -33.9985 -33.9845 -33.9698 -33.2352
   -33.2287 -33.2278 -33.1978 -33.1943 -33.1868 -32.6459 -32.6416 -32.6400
     0.5841  11.7907  12.8620  13.1404  13.1800  15.3465  15.3810  15.6565
    15.8144  15.8152  17.9269  18.1260  18.1576  18.7519  18.7965  20.1515
    20.1882  20.2134  20.2569  20.3570  20.4300  20.5232  20.5310  20.7748
    23.1394  23.8583

          k = 0.0000 0.1111 0.2222 ( 12548 PWs)   bands (ev):

   -67.3558 -67.3093 -67.3040 -66.5340 -34.0078 -33.9814 -33.9536 -33.2423
   -33.2261 -33.2256 -33.2011 -33.1971 -33.1816 -32.6522 -32.6447 -32.6422
     0.7670  11.5461  12.5125  12.9609  13.0783  15.4216  15.6384  15.8233
    16.1191  16.1284  17.7346  18.2825  18.2969  18.6944  18.7297  19.8199
    19.9567  19.9613  20.0872  20.2024  20.3611  20.3776  20.4816  20.7401
    23.2069  23.4010

          k = 0.0000 0.1111 0.3333 ( 12541 PWs)   bands (ev):

   -67.3491 -67.3157 -67.3040 -66.5343 -34.0134 -33.9779 -33.9400 -33.2494
   -33.2232 -33.2231 -33.2033 -33.2002 -33.1783 -32.6582 -32.6483 -32.6460
     0.9917  10.8682  12.4339  12.7535  13.4030  15.3130  16.0056  16.0652
    16.4576  16.4681  17.4440  18.3442  18.4935  18.5274  18.6581  19.4836
    19.5000  19.7217  19.8937  19.9370  20.2477  20.3625  20.3842  20.7409
    23.1200  23.4628

          k = 0.0000 0.1111 0.4444 ( 12514 PWs)   bands (ev):

   -67.3427 -67.3219 -67.3040 -66.5344 -34.0160 -33.9756 -33.9322 -33.2537
   -33.2214 -33.2212 -33.2047 -33.2022 -33.1769 -32.6616 -32.6506 -32.6488
     1.1499  10.3978  12.3629  12.6342  14.0096  14.9057  16.3025  16.3038
    16.6880  16.7029  17.1800  18.1819  18.3305  18.7853  18.7914  19.0849
    19.3043  19.5820  19.6172  19.8225  20.1427  20.3058  20.3643  20.7425
    23.1028  23.5991

          k = 0.0000 0.2222 0.2222 ( 12528 PWs)   bands (ev):

   -67.3515 -67.3111 -67.3063 -66.5342 -34.0291 -33.9784 -33.9270 -33.2584
   -33.2258 -33.2232 -33.2048 -33.1999 -33.1672 -32.6561 -32.6479 -32.6421
     0.9504  11.4991  11.8222  12.7777  13.2515  15.6150  15.7740  15.9971
    16.3295  16.3635  17.6308  18.2672  18.3693  18.5059  18.5784  19.6836
    19.7678  19.8179  19.9186  20.0932  20.4435  20.4472  20.5154  20.6845
    23.1190  23.9531

          k = 0.0000 0.2222 0.3333 ( 12527 PWs)   bands (ev):

   -67.3453 -67.3161 -67.3072 -66.5344 -34.0442 -33.9750 -33.9060 -33.2721
   -33.2256 -33.2200 -33.2091 -33.2031 -33.1560 -32.6578 -32.6516 -32.6446
     1.1762  10.8718  11.6510  12.5968  13.6634  15.5696  16.0778  16.2380
    16.5922  16.6214  17.4051  17.9795  18.2656  18.5836  18.5885  19.5183
    19.5365  19.7116  19.7448  19.8914  20.4105  20.4109  20.4836  20.6809
    23.0114  23.7342

          k = 0.0000 0.2222 0.4444 ( 12515 PWs)   bands (ev):

   -67.3392 -67.3218 -67.3074 -66.5345 -34.0519 -33.9727 -33.8943 -33.2797
   -33.2244 -33.2179 -33.2129 -33.2051 -33.1501 -32.6572 -32.6540 -32.6478
     1.3354  10.3960  11.6140  12.4902  14.2181  15.2000  16.3417  16.4881
    16.7631  16.8469  17.1756  17.7078  18.1340  18.6115  18.8658  19.1778
    19.3752  19.6214  19.6726  19.8135  20.3952  20.4156  20.4750  20.5140
    23.0487  23.6570

          k = 0.0000 0.3333 0.3333 ( 12518 PWs)   bands (ev):

   -67.3397 -67.3178 -67.3109 -66.5345 -34.0665 -33.9717 -33.8797 -33.2900
   -33.2279 -33.2164 -33.2162 -33.2063 -33.1383 -32.6555 -32.6554 -32.6448
     1.4037  10.8319  10.8968  12.4374  14.0753  15.8682  16.0259  16.4606
    16.7894  16.7989  17.2929  17.6315  18.0633  18.5076  18.7327  19.3586
    19.5304  19.5343  19.7313  19.9247  20.1458  20.5071  20.5134  20.8572
    22.5354  24.3132

          k = 0.0000 0.3333 0.4444 ( 12517 PWs)   bands (ev):

   -67.3339 -67.3217 -67.3126 -66.5346 -34.0783 -33.9695 -33.8654 -33.2997
   -33.2282 -33.2223 -33.2142 -33.2083 -33.1287 -32.6579 -32.6521 -32.6469
     1.5645  10.3851  10.8476  12.3418  14.5567  15.6032  16.2202  16.6895
    16.8592  17.0663  17.1525  17.3658  17.9796  18.4023  18.9742  19.2073
    19.2663  19.5026  19.5849  20.0346  20.0958  20.5254  20.5911  20.7759
    22.3308  24.3165

          k = 0.0000 0.4444 0.4444 ( 12492 PWs)   bands (ev):

   -67.3279 -67.3221 -67.3181 -66.5347 -34.0922 -33.9674 -33.8497 -33.3103
   -33.2304 -33.2287 -33.2117 -33.2105 -33.1171 -32.6604 -32.6484 -32.6467
     1.7268  10.3716  10.3756  12.2521  14.9224  15.9621  15.9821  16.8458
    16.9115  16.9141  17.1164  17.5506  17.9117  18.1331  19.0466  19.0617
    19.3042  19.4723  19.5334  19.7151  20.2625  20.5381  20.7782  20.8773
    21.8695  24.8264

          k = 0.1111 0.1111 0.1111 ( 12563 PWs)   bands (ev):

   -67.3588 -67.3052 -67.3052 -66.5339 -34.0118 -33.9687 -33.9687 -33.2361
   -33.2308 -33.2308 -33.1957 -33.1957 -33.1829 -32.6496 -32.6409 -32.6409
     0.6531  11.8236  12.7770  12.7770  13.1934  15.4346  15.4346  15.7976
    15.7976  15.9797  17.8991  18.1706  18.1706  18.7703  18.7703  20.0054
    20.1165  20.1420  20.1420  20.4002  20.4002  20.4018  20.6831  20.6831
    23.1808  24.0625

          k = 0.1111 0.1111 0.2222 ( 12529 PWs)   bands (ev):

   -67.3543 -67.3095 -67.3052 -66.5341 -34.0261 -33.9658 -33.9479 -33.2436
   -33.2381 -33.2288 -33.1956 -33.1929 -33.1772 -32.6553 -32.6432 -32.6427
     0.8362  11.5661  12.4034  12.5860  13.2014  15.5070  15.6956  15.9212
    16.1317  16.2321  17.7283  18.2743  18.2893  18.6798  18.6801  19.6473
    19.7880  19.9247  19.9925  20.2985  20.4489  20.4710  20.5379  20.7272
    23.2583  23.5521

          k = 0.1111 0.1111 0.3333 ( 12526 PWs)   bands (ev):

   -67.3478 -67.3158 -67.3052 -66.5343 -34.0358 -33.9626 -33.9307 -33.2517
   -33.2457 -33.2241 -33.1939 -33.1926 -33.1730 -32.6593 -32.6472 -32.6459
     1.0613  10.8679  12.3697  12.3989  13.5153  15.4057  16.0630  16.1445
    16.4743  16.5165  17.4468  18.2329  18.3235  18.6233  18.6582  19.2549
    19.5472  19.7153  19.8094  20.1296  20.3504  20.3761  20.5336  20.6670
    23.2541  23.4786

          k = 0.1111 0.1111 0.4444 ( 12521 PWs)   bands (ev):

   -67.3415 -67.3219 -67.3052 -66.5344 -34.0406 -33.9605 -33.9210 -33.2565
   -33.2504 -33.2200 -33.1940 -33.1924 -33.1708 -32.6602 -32.6519 -32.6476
     1.2199  10.3940  12.2892  12.3293  14.0811  15.0139  16.3633  16.3820
    16.6152  16.8199  17.1837  17.9894  18.2134  18.7870  18.8089  19.0182
    19.2797  19.6461  19.6872  20.0046  20.1064  20.3067  20.5540  20.6458
    23.2673  23.5687

          k = 0.1111 0.2222 0.2222 ( 12537 PWs)   bands (ev):

   -67.3502 -67.3111 -67.3075 -66.5342 -34.0491 -33.9569 -33.9262 -33.2589
   -33.2403 -33.2391 -33.1907 -33.1876 -33.1658 -32.6593 -32.6450 -32.6423
     1.0200  11.5141  11.7663  12.3869  13.3759  15.7043  15.8408  16.1108
    16.3310  16.3847  17.6414  18.2105  18.2626  18.5889  18.6014  19.4315
    19.5361  19.8334  19.8426  20.2435  20.4420  20.4842  20.7323  20.8283
    23.2301  23.9472

          k = 0.1111 0.2222 0.3333 ( 12525 PWs)   bands (ev):

   -67.3442 -67.3161 -67.3082 -66.5344 -34.0660 -33.9530 -33.9045 -33.2735
   -33.2499 -33.2380 -33.1878 -33.1854 -33.1551 -32.6603 -32.6480 -32.6442
     1.2464  10.8574  11.6115  12.2608  13.7619  15.6577  16.1553  16.3301
    16.5269  16.6651  17.4260  17.9404  18.1447  18.6004  18.6605  19.2780
    19.3042  19.7069  19.8062  20.0893  20.3801  20.4332  20.7261  20.8360
    23.1212  23.7695

          k = 0.1111 0.2222 0.4444 ( 12540 PWs)   bands (ev):

   -67.3382 -67.3218 -67.3084 -66.5345 -34.0749 -33.9508 -33.8921 -33.2816
   -33.2557 -33.2368 -33.1861 -33.1852 -33.1493 -32.6575 -32.6525 -32.6462
     1.4062  10.3799  11.5685  12.1834  14.2830  15.2975  16.4052  16.5684
    16.6591  16.9774  17.1954  17.6107  18.0536  18.6265  18.8408  19.0775
    19.1791  19.7029  19.8058  19.9538  20.3193  20.3828  20.4879  20.8716
    23.1469  23.7261

          k = 0.1111 0.3333 0.3333 ( 12528 PWs)   bands (ev):

   -67.3388 -67.3177 -67.3118 -66.5345 -34.0891 -33.9485 -33.8794 -33.2923
   -33.2527 -33.2492 -33.1848 -33.1830 -33.1380 -32.6592 -32.6492 -32.6441
     1.4749  10.8123  10.8546  12.1296  14.1547  15.9504  16.0731  16.5537
    16.6810  16.8730  17.3267  17.6478  17.9840  18.5070  18.7403  19.0984
    19.3923  19.5425  19.9237  19.9246  20.2616  20.4109  20.8981  20.9776
    22.5958  24.2108

          k = 0.1111 0.3333 0.4444 ( 12508 PWs)   bands (ev):

   -67.3333 -67.3217 -67.3132 -66.5346 -34.1015 -33.9463 -33.8650 -33.3024
   -33.2585 -33.2515 -33.1833 -33.1825 -33.1286 -32.6573 -32.6497 -32.6455
     1.6367  10.3567  10.8090  12.0485  14.6042  15.6784  16.2440  16.7771
    16.8626  17.0622  17.1773  17.4108  17.9281  18.4035  18.8153  18.9911
    19.3557  19.5849  19.7342  19.9963  20.1408  20.5091  20.7317  21.0726
    22.3518  24.2445

          k = 0.1111 0.4444 0.4444 ( 12499 PWs)   bands (ev):

   -67.3276 -67.3221 -67.3184 -66.5347 -34.1157 -33.9440 -33.8496 -33.3135
   -33.2606 -33.2599 -33.1819 -33.1817 -33.1171 -32.6578 -32.6467 -32.6454
     1.8000  10.3371  10.3386  11.9660  14.9331  15.9994  16.0391  16.8468
    16.9391  17.0012  17.1563  17.6198  17.8808  18.1380  18.6864  19.0342
    19.4387  19.5798  19.6273  19.9197  19.9906  20.7268  20.8650  21.1308
    21.8233  24.5853

          k = 0.2222 0.2222 0.2222 ( 12524 PWs)   bands (ev):

   -67.3465 -67.3111 -67.3111 -66.5344 -34.0778 -33.9242 -33.9242 -33.2614
   -33.2614 -33.2587 -33.1747 -33.1747 -33.1599 -32.6623 -32.6427 -32.6427
     1.2051  11.5056  11.6331  11.6331  13.6117  15.9656  15.9656  16.3809
    16.3959  16.3959  17.6133  18.0858  18.0858  18.6334  18.6334  19.2213
    19.2254  19.7408  19.7408  20.3379  20.4368  20.4368  21.0799  21.0799
    23.3970  23.8152

          k = 0.2222 0.2222 0.3333 ( 12517 PWs)   bands (ev):

   -67.3410 -67.3163 -67.3110 -66.5345 -34.0999 -33.9220 -33.8976 -33.2784
   -33.2761 -33.2615 -33.1697 -33.1642 -33.1503 -32.6613 -32.6442 -32.6432
     1.4335  10.8142  11.4940  11.5402  14.0009  15.8916  16.3472  16.3799
    16.5657  16.7437  17.4588  17.8191  17.9645  18.6055  18.6848  18.9742
    19.2130  19.6808  19.7892  20.2381  20.3906  20.4167  20.9556  21.2851
    23.3371  23.6136

          k = 0.2222 0.2222 0.4444 ( 12513 PWs)   bands (ev):

   -67.3355 -67.3217 -67.3110 -66.5346 -34.1116 -33.9205 -33.8828 -33.2879
   -33.2848 -33.2626 -33.1679 -33.1593 -33.1443 -32.6568 -32.6490 -32.6435
     1.5951  10.3371  11.4091  11.5219  14.4637  15.5467  16.4096  16.6962
    16.7868  17.0771  17.2509  17.4543  17.9241  18.6152  18.7201  18.7983
    19.2515  19.7832  19.8992  20.1207  20.3445  20.3566  20.5387  21.3915
    23.3744  23.4638

          k = 0.2222 0.3333 0.3333 ( 12520 PWs)   bands (ev):

   -67.3364 -67.3177 -67.3141 -66.5346 -34.1267 -33.9096 -33.8784 -33.2983
   -33.2827 -33.2788 -33.1587 -33.1569 -33.1371 -32.6587 -32.6433 -32.6423
     1.6650  10.7516  10.7597  11.4196  14.3573  16.1250  16.1724  16.5858
    16.7954  16.9204  17.4224  17.6824  17.8428  18.5145  18.6472  18.7607
    19.3523  19.6420  19.8902  20.1759  20.3800  20.3971  21.0666  21.4858
    22.7511  23.7076

          k = 0.2222 0.3333 0.4444 ( 12507 PWs)   bands (ev):

   -67.3314 -67.3217 -67.3150 -66.5346 -34.1411 -33.9067 -33.8638 -33.3094
   -33.2914 -33.2832 -33.1564 -33.1521 -33.1281 -32.6542 -32.6451 -32.6420
     1.8293  10.2851  10.7136  11.3578  14.7230  15.8566  16.2685  16.8382
    17.0104  17.0608  17.3085  17.5569  17.8456  18.4188  18.5334  18.7258
    19.4676  19.7470  19.9622  20.0608  20.3208  20.4540  20.7318  21.6892
    22.3539  23.6878

          k = 0.2222 0.4444 0.4444 ( 12518 PWs)   bands (ev):

   -67.3267 -67.3220 -67.3192 -66.5347 -34.1572 -33.9027 -33.8495 -33.3214
   -33.2952 -33.2945 -33.1509 -33.1507 -33.1169 -32.6512 -32.6427 -32.6422
     1.9960  10.2477  10.2518  11.2849  14.9443  16.0835  16.1698  16.6777
    17.2032  17.2397  17.3382  17.7450  17.8430  18.1947  18.3671  18.7273
    19.6938  19.7347  19.8888  19.9596  20.2297  20.6461  20.8146  21.6133
    21.8561  23.8900

          k = 0.3333 0.3333 0.3333 ( 12505 PWs)   bands (ev):

   -67.3327 -67.3177 -67.3177 -66.5346 -34.1573 -33.8774 -33.8774 -33.3060
   -33.3060 -33.3001 -33.1406 -33.1406 -33.1335 -32.6543 -32.6403 -32.6403
     1.9011  10.6408  10.6408  10.7349  14.6291  16.0837  16.4464  16.4464
    17.0956  17.0956  17.5101  17.7469  17.7469  18.4502  18.5254  18.5254
    19.5062  19.8513  19.8513  20.2893  20.3758  20.3758  21.3673  21.3673
    22.9687  22.9687

          k = 0.3333 0.3333 0.4444 ( 12520 PWs)   bands (ev):

   -67.3286 -67.3216 -67.3176 -66.5346 -34.1739 -33.8767 -33.8596 -33.3186
   -33.3147 -33.3077 -33.1379 -33.1315 -33.1258 -32.6488 -32.6409 -32.6389
     2.0693  10.2048  10.5717  10.6653  14.8541  16.0351  16.2874  16.6326
    17.3154  17.3325  17.5107  17.7313  17.8240  18.2896  18.4212  18.5171
    19.6666  19.9041  20.0201  20.2097  20.3904  20.4079  20.7758  21.7173
    22.3419  23.1528

          k = 0.3333 0.4444 0.4444 ( 12510 PWs)   bands (ev):

   -67.3254 -67.3220 -67.3204 -66.5346 -34.1919 -33.8682 -33.8493 -33.3302
   -33.3216 -33.3208 -33.1287 -33.1283 -33.1168 -32.6436 -32.6385 -32.6383
     2.2409  10.1489  10.1584  10.5575  14.9330  16.1685  16.2821  16.4794
    17.5925  17.5995  17.6671  17.8599  17.8663  18.1332  18.2999  18.4923
    19.8637  19.9510  20.0416  20.1411  20.4196  20.4851  20.7226  21.2311
    22.3659  23.1194

          k = 0.4444 0.4444 0.4444 ( 12559 PWs)   bands (ev):

   -67.3238 -67.3220 -67.3220 -66.5346 -34.2110 -33.8492 -33.8492 -33.3359
   -33.3359 -33.3349 -33.1172 -33.1172 -33.1163 -32.6381 -32.6360 -32.6360
     2.4166  10.0866  10.0866  10.1092  14.9149  16.2385  16.3298  16.3298
    17.8947  17.8947  17.9809  17.9809  17.9853  18.0020  18.3663  18.3663
    20.0130  20.0709  20.0709  20.2601  20.3444  20.3444  20.7348  20.7348
    22.6685  22.6685

     the Fermi energy is    18.7319 ev

!    total energy              =   -1345.17093412 Ry
     Harris-Foulkes estimate   =   -1345.17093412 Ry
     estimated scf accuracy    <          9.8E-09 Ry

     total all-electron energy =    -10291.772569 Ry

     The total energy is the sum of the following terms:

     one-electron contribution =    -446.73655252 Ry
     hartree contribution      =     269.20118112 Ry
     xc contribution           =    -117.08692345 Ry
     ewald contribution        =    -711.61403732 Ry
     one-center paw contrib.   =    -338.93469139 Ry
     smearing contrib. (-TS)   =       0.00008943 Ry

     total magnetization       =     7.68 Bohr mag/cell
     absolute magnetization    =     8.03 Bohr mag/cell

     convergence has been achieved in  26 iterations

     Forces acting on atoms (Ry/au):


     negative rho (up, down):  0.000E+00 1.723E-04
     atom    1 type  1   force =     0.00000000    0.00000000    0.00000000
     atom    2 type  1   force =     0.00000000    0.00000000    0.00000000
     atom    3 type  1   force =     0.00000000    0.00000000    0.00000000
     atom    4 type  1   force =     0.00000000    0.00000000    0.00000000
     atom    5 type  2   force =     0.00000000    0.00000000    0.00000000

     Total force =     0.000000     Total SCF correction =     0.000000


     entering subroutine stress ...


     negative rho (up, down):  0.000E+00 1.723E-04
          total   stress  (Ry/bohr**3)                   (kbar)     P=  148.83
   0.00101172   0.00000000   0.00000000        148.83      0.00      0.00
   0.00000000   0.00101172   0.00000000          0.00    148.83      0.00
   0.00000000   0.00000000   0.00101172          0.00      0.00    148.83


     Writing output data file config.save
 
     init_run     :     11.54s CPU     12.12s WALL (       1 calls)
     electrons    :    808.95s CPU    828.06s WALL (       1 calls)
     forces       :      2.66s CPU      2.86s WALL (       1 calls)
     stress       :      9.46s CPU     10.04s WALL (       1 calls)

     Called by init_run:
     wfcinit      :      9.15s CPU      9.48s WALL (       1 calls)
     potinit      :      0.91s CPU      0.97s WALL (       1 calls)

     Called by electrons:
     c_bands      :    564.21s CPU    571.90s WALL (      26 calls)
     sum_band     :    208.13s CPU    215.34s WALL (      26 calls)
     v_of_rho     :      9.94s CPU     10.07s WALL (      27 calls)
     newd         :     14.11s CPU     17.78s WALL (      27 calls)
     mix_rho      :      1.90s CPU      1.92s WALL (      26 calls)

     Called by c_bands:
     init_us_2    :      7.61s CPU      7.78s WALL (    3850 calls)
     cegterg      :    538.01s CPU    545.22s WALL (    1820 calls)

     Called by sum_band:
     sum_band:bec :      0.07s CPU      0.07s WALL (    1820 calls)
     addusdens    :     43.32s CPU     47.98s WALL (      26 calls)

     Called by *egterg:
     h_psi        :    447.53s CPU    453.76s WALL (    6303 calls)
     s_psi        :     11.76s CPU     11.94s WALL (    6303 calls)
     g_psi        :      2.07s CPU      2.10s WALL (    4413 calls)
     cdiaghg      :     18.89s CPU     19.10s WALL (    6233 calls)

     Called by h_psi:
     add_vuspsi   :     11.54s CPU     11.71s WALL (    6303 calls)

     General routines
     calbec       :     18.39s CPU     18.74s WALL (    8473 calls)
     fft          :      8.60s CPU      8.74s WALL (     871 calls)
     ffts         :      0.12s CPU      0.12s WALL (     106 calls)
     fftw         :    283.13s CPU    287.28s WALL (  441514 calls)
     interpolate  :      1.44s CPU      1.46s WALL (     106 calls)
     davcio       :      0.12s CPU      0.41s WALL (      70 calls)
 
     Parallel routines
     fft_scatter  :    146.53s CPU    149.02s WALL (  442491 calls)

     PAW routines
     PAW_pot      :     10.76s CPU     11.19s WALL (      27 calls)
     PAW_symme    :      0.04s CPU      0.04s WALL (      53 calls)
 
     PWSCF        : 13m53.35s CPU    14m14.28s WALL

 
   This run was terminated on:  17:34: 2  27Oct2020            

=------------------------------------------------------------------------------=
   JOB DONE.
=------------------------------------------------------------------------------=
