
     Program PWSCF v.5.2.0 starts on 27Oct2020 at 20:56:20 

     This program is part of the open-source Quantum ESPRESSO suite
     for quantum simulation of materials; please cite
         "P. Giannozzi et al., J. Phys.:Condens. Matter 21 395502 (2009);
          URL http://www.quantum-espresso.org", 
     in publications or presentations arising from this work. More details at
     http://www.quantum-espresso.org/quote

     Parallel version (MPI), running on     6 processors
     R & G space division:  proc/nbgrp/npool/nimage =       6
     Reading input from 18.in

     Current dimensions of program PWSCF are:
     Max number of different atomic species (ntypx) = 10
     Max number of k-points (npk) =  40000
     Max angular momentum in pseudopotentials (lmaxx) =  3

     IMPORTANT: XC functional enforced from input :
     Exchange-correlation      = PBE ( 1  4  3  4 0 0)
     Any further DFT definition will be discarded
     Please, verify this is what you really want

               file Fe_PSEUDO: wavefunction(s)  3P 3D renormalized
               file N_PSEUDO: wavefunction(s)  2S renormalized

     Subspace diagonalization in iterative solution of the eigenvalue problem:
     a serial algorithm will be used

 
     Parallelization info
     --------------------
     sticks:   dense  smooth     PW     G-vecs:    dense   smooth      PW
     Min        1957     433    120               159409    16725    2460
     Max        1958     434    121               159412    16740    2463
     Sum       11745    2601    725               956459   100377   14771
 
     Generating pointlists ...
     new r_m :   0.2063 (alat units)  1.4318 (a.u.) for type    1
     new r_m :   0.2063 (alat units)  1.4318 (a.u.) for type    2


     bravais-lattice index     =            0
     lattice parameter (alat)  =       6.9422  a.u.
     unit-cell volume          =     334.5777 (a.u.)^3
     number of atoms/cell      =            5
     number of atomic types    =            2
     number of electrons       =        69.00
     number of Kohn-Sham states=           42
     kinetic-energy cutoff     =     170.0000  Ry
     charge density cutoff     =    3060.0000  Ry
     convergence threshold     =      1.0E-08
     mixing beta               =       0.7000
     number of iterations used =            8  plain     mixing
     Exchange-correlation      = PBE ( 1  4  3  4 0 0)

     celldm(1)=   6.942230  celldm(2)=   0.000000  celldm(3)=   0.000000
     celldm(4)=   0.000000  celldm(5)=   0.000000  celldm(6)=   0.000000

     crystal axes: (cart. coord. in units of alat)
               a(1) = (   1.000000   0.000000   0.000000 )  
               a(2) = (   0.000000   1.000000   0.000000 )  
               a(3) = (   0.000000   0.000000   1.000000 )  

     reciprocal axes: (cart. coord. in units 2 pi/alat)
               b(1) = (  1.000000  0.000000  0.000000 )  
               b(2) = (  0.000000  1.000000  0.000000 )  
               b(3) = (  0.000000  0.000000  1.000000 )  


     PseudoPot. # 1 for Fe read from file:
     pseudo/Fe_PSEUDO
     MD5 check sum: e30d5f36a6f0cb983ee41abee56170da
     Pseudo is Projector augmented-wave + core cor, Zval = 16.0
     Generated using "atomic" code by A. Dal Corso  v.6.3
     Shape of augmentation charge: PSQ
     Using radial grid of 1191 points,  6 beta functions with: 
                l(1) =   0
                l(2) =   0
                l(3) =   1
                l(4) =   1
                l(5) =   2
                l(6) =   2
     Q(r) pseudized with 0 coefficients 


     PseudoPot. # 2 for  N read from file:
     pseudo/N_PSEUDO
     MD5 check sum: 14c48229446f9f2d411169a3abcbc3fa
     Pseudo is Projector augmented-wave + core cor, Zval =  5.0
     Generated using "atomic" code by A. Dal Corso  v.6.3
     Shape of augmentation charge: PSQ
     Using radial grid of 1085 points,  4 beta functions with: 
                l(1) =   0
                l(2) =   0
                l(3) =   1
                l(4) =   1
     Q(r) pseudized with 0 coefficients 


     atomic species   valence    mass     pseudopotential
        Fe            16.00    55.84500     Fe( 1.00)
        N              5.00    14.00650      N( 1.00)

     Starting magnetic structure 
     atomic species   magnetization
        Fe           0.500
        N           -0.010

     48 Sym. Ops., with inversion, found



   Cartesian axes

     site n.     atom                  positions (alat units)
         1           Fe  tau(   1) = (   0.0000000   0.5000000   0.5000000  )
         2           Fe  tau(   2) = (   0.5000000   0.5000000   0.0000000  )
         3           Fe  tau(   3) = (   0.5000000   0.0000000   0.5000000  )
         4           Fe  tau(   4) = (   0.0000000   0.0000000   0.0000000  )
         5           N   tau(   5) = (   0.5000000   0.5000000   0.5000000  )

     number of k points=    70  Marzari-Vanderbilt smearing, width (Ry)=  0.0050
                       cart. coord. in units 2pi/alat
        k(    1) = (   0.0000000   0.0000000   0.0000000), wk =   0.0013717
        k(    2) = (   0.0000000   0.0000000   0.1111111), wk =   0.0082305
        k(    3) = (   0.0000000   0.0000000   0.2222222), wk =   0.0082305
        k(    4) = (   0.0000000   0.0000000   0.3333333), wk =   0.0082305
        k(    5) = (   0.0000000   0.0000000   0.4444444), wk =   0.0082305
        k(    6) = (   0.0000000   0.1111111   0.1111111), wk =   0.0164609
        k(    7) = (   0.0000000   0.1111111   0.2222222), wk =   0.0329218
        k(    8) = (   0.0000000   0.1111111   0.3333333), wk =   0.0329218
        k(    9) = (   0.0000000   0.1111111   0.4444444), wk =   0.0329218
        k(   10) = (   0.0000000   0.2222222   0.2222222), wk =   0.0164609
        k(   11) = (   0.0000000   0.2222222   0.3333333), wk =   0.0329218
        k(   12) = (   0.0000000   0.2222222   0.4444444), wk =   0.0329218
        k(   13) = (   0.0000000   0.3333333   0.3333333), wk =   0.0164609
        k(   14) = (   0.0000000   0.3333333   0.4444444), wk =   0.0329218
        k(   15) = (   0.0000000   0.4444444   0.4444444), wk =   0.0164609
        k(   16) = (   0.1111111   0.1111111   0.1111111), wk =   0.0109739
        k(   17) = (   0.1111111   0.1111111   0.2222222), wk =   0.0329218
        k(   18) = (   0.1111111   0.1111111   0.3333333), wk =   0.0329218
        k(   19) = (   0.1111111   0.1111111   0.4444444), wk =   0.0329218
        k(   20) = (   0.1111111   0.2222222   0.2222222), wk =   0.0329218
        k(   21) = (   0.1111111   0.2222222   0.3333333), wk =   0.0658436
        k(   22) = (   0.1111111   0.2222222   0.4444444), wk =   0.0658436
        k(   23) = (   0.1111111   0.3333333   0.3333333), wk =   0.0329218
        k(   24) = (   0.1111111   0.3333333   0.4444444), wk =   0.0658436
        k(   25) = (   0.1111111   0.4444444   0.4444444), wk =   0.0329218
        k(   26) = (   0.2222222   0.2222222   0.2222222), wk =   0.0109739
        k(   27) = (   0.2222222   0.2222222   0.3333333), wk =   0.0329218
        k(   28) = (   0.2222222   0.2222222   0.4444444), wk =   0.0329218
        k(   29) = (   0.2222222   0.3333333   0.3333333), wk =   0.0329218
        k(   30) = (   0.2222222   0.3333333   0.4444444), wk =   0.0658436
        k(   31) = (   0.2222222   0.4444444   0.4444444), wk =   0.0329218
        k(   32) = (   0.3333333   0.3333333   0.3333333), wk =   0.0109739
        k(   33) = (   0.3333333   0.3333333   0.4444444), wk =   0.0329218
        k(   34) = (   0.3333333   0.4444444   0.4444444), wk =   0.0329218
        k(   35) = (   0.4444444   0.4444444   0.4444444), wk =   0.0109739
        k(   36) = (   0.0000000   0.0000000   0.0000000), wk =   0.0013717
        k(   37) = (   0.0000000   0.0000000   0.1111111), wk =   0.0082305
        k(   38) = (   0.0000000   0.0000000   0.2222222), wk =   0.0082305
        k(   39) = (   0.0000000   0.0000000   0.3333333), wk =   0.0082305
        k(   40) = (   0.0000000   0.0000000   0.4444444), wk =   0.0082305
        k(   41) = (   0.0000000   0.1111111   0.1111111), wk =   0.0164609
        k(   42) = (   0.0000000   0.1111111   0.2222222), wk =   0.0329218
        k(   43) = (   0.0000000   0.1111111   0.3333333), wk =   0.0329218
        k(   44) = (   0.0000000   0.1111111   0.4444444), wk =   0.0329218
        k(   45) = (   0.0000000   0.2222222   0.2222222), wk =   0.0164609
        k(   46) = (   0.0000000   0.2222222   0.3333333), wk =   0.0329218
        k(   47) = (   0.0000000   0.2222222   0.4444444), wk =   0.0329218
        k(   48) = (   0.0000000   0.3333333   0.3333333), wk =   0.0164609
        k(   49) = (   0.0000000   0.3333333   0.4444444), wk =   0.0329218
        k(   50) = (   0.0000000   0.4444444   0.4444444), wk =   0.0164609
        k(   51) = (   0.1111111   0.1111111   0.1111111), wk =   0.0109739
        k(   52) = (   0.1111111   0.1111111   0.2222222), wk =   0.0329218
        k(   53) = (   0.1111111   0.1111111   0.3333333), wk =   0.0329218
        k(   54) = (   0.1111111   0.1111111   0.4444444), wk =   0.0329218
        k(   55) = (   0.1111111   0.2222222   0.2222222), wk =   0.0329218
        k(   56) = (   0.1111111   0.2222222   0.3333333), wk =   0.0658436
        k(   57) = (   0.1111111   0.2222222   0.4444444), wk =   0.0658436
        k(   58) = (   0.1111111   0.3333333   0.3333333), wk =   0.0329218
        k(   59) = (   0.1111111   0.3333333   0.4444444), wk =   0.0658436
        k(   60) = (   0.1111111   0.4444444   0.4444444), wk =   0.0329218
        k(   61) = (   0.2222222   0.2222222   0.2222222), wk =   0.0109739
        k(   62) = (   0.2222222   0.2222222   0.3333333), wk =   0.0329218
        k(   63) = (   0.2222222   0.2222222   0.4444444), wk =   0.0329218
        k(   64) = (   0.2222222   0.3333333   0.3333333), wk =   0.0329218
        k(   65) = (   0.2222222   0.3333333   0.4444444), wk =   0.0658436
        k(   66) = (   0.2222222   0.4444444   0.4444444), wk =   0.0329218
        k(   67) = (   0.3333333   0.3333333   0.3333333), wk =   0.0109739
        k(   68) = (   0.3333333   0.3333333   0.4444444), wk =   0.0329218
        k(   69) = (   0.3333333   0.4444444   0.4444444), wk =   0.0329218
        k(   70) = (   0.4444444   0.4444444   0.4444444), wk =   0.0109739

     Dense  grid:   956459 G-vectors     FFT dimensions: ( 125, 125, 125)

     Smooth grid:   100377 G-vectors     FFT dimensions: (  60,  60,  60)

     Largest allocated arrays     est. size (Mb)     dimensions
        Kohn-Sham Wavefunctions         1.37 Mb     (    2133,   42)
        NL pseudopotentials             2.60 Mb     (    2133,   80)
        Each V/rho on FFT grid         10.01 Mb     (  328125,   2)
        Each G-vector array             1.22 Mb     (  159412)
        G-vector shells                 0.02 Mb     (    3111)
     Largest temporary arrays     est. size (Mb)     dimensions
        Auxiliary wavefunctions         5.47 Mb     (    2133,  168)
        Each subspace H/S matrix        0.43 Mb     (     168,  168)
        Each <psi_i|beta_j> matrix      0.05 Mb     (      80,   42)
        Arrays for rho mixing          40.05 Mb     (  328125,    8)

     Initial potential from superposition of free atoms

     starting charge   68.99837, renormalised to   69.00000
     Starting wfc are   44 randomized atomic wfcs
     Checking if some PAW data can be deallocated... 

     total cpu time spent up to now is       19.3 secs

     per-process dynamical memory:   218.5 Mb

     Self-consistent Calculation

     iteration #  1     ecut=   170.00 Ry     beta=0.70
     Davidson diagonalization with overlap
     ethr =  1.00E-02,  avg # of iterations =  3.1

     negative rho (up, down):  0.000E+00 4.350E-04
 
     Magnetic moment per site:
     atom:    1    charge:   12.7375    magn:    4.0963    constr:    0.0000
     atom:    2    charge:   12.7375    magn:    4.0963    constr:    0.0000
     atom:    3    charge:   12.7375    magn:    4.0963    constr:    0.0000
     atom:    4    charge:   12.6149    magn:    4.1685    constr:    0.0000
     atom:    5    charge:    4.6375    magn:    0.1188    constr:    0.0000

     total cpu time spent up to now is       73.6 secs

     total energy              =   -1344.14161427 Ry
     Harris-Foulkes estimate   =   -1343.42448550 Ry
     estimated scf accuracy    <       2.86981438 Ry

     total magnetization       =    13.87 Bohr mag/cell
     absolute magnetization    =    14.05 Bohr mag/cell

     iteration #  2     ecut=   170.00 Ry     beta=0.70
     Davidson diagonalization with overlap
     ethr =  4.16E-03,  avg # of iterations =  3.3

     negative rho (up, down):  0.000E+00 3.907E-04
 
     Magnetic moment per site:
     atom:    1    charge:   12.7248    magn:    3.8184    constr:    0.0000
     atom:    2    charge:   12.7248    magn:    3.8184    constr:    0.0000
     atom:    3    charge:   12.7248    magn:    3.8184    constr:    0.0000
     atom:    4    charge:   13.0667    magn:    3.5726    constr:    0.0000
     atom:    5    charge:    4.2306    magn:    0.0578    constr:    0.0000

     total cpu time spent up to now is      127.5 secs

     total energy              =   -1343.28940456 Ry
     Harris-Foulkes estimate   =   -1345.75975906 Ry
     estimated scf accuracy    <       8.63454950 Ry

     total magnetization       =     9.38 Bohr mag/cell
     absolute magnetization    =    10.49 Bohr mag/cell

     iteration #  3     ecut=   170.00 Ry     beta=0.70
     Davidson diagonalization with overlap
     ethr =  4.16E-03,  avg # of iterations =  3.5

     negative rho (up, down):  0.000E+00 1.935E-04
 
     Magnetic moment per site:
     atom:    1    charge:   12.8857    magn:    3.4453    constr:    0.0000
     atom:    2    charge:   12.8857    magn:    3.4453    constr:    0.0000
     atom:    3    charge:   12.8857    magn:    3.4453    constr:    0.0000
     atom:    4    charge:   12.8130    magn:    3.0117    constr:    0.0000
     atom:    5    charge:    4.0301    magn:    0.0243    constr:    0.0000

     total cpu time spent up to now is      182.5 secs

     total energy              =   -1343.62185816 Ry
     Harris-Foulkes estimate   =   -1346.19032396 Ry
     estimated scf accuracy    <      25.49577811 Ry

     total magnetization       =     3.81 Bohr mag/cell
     absolute magnetization    =     4.50 Bohr mag/cell

     iteration #  4     ecut=   170.00 Ry     beta=0.70
     Davidson diagonalization with overlap
     ethr =  4.16E-03,  avg # of iterations =  3.2

     negative rho (up, down):  0.000E+00 6.108E-04
 
     Magnetic moment per site:
     atom:    1    charge:   12.7724    magn:    2.2674    constr:    0.0000
     atom:    2    charge:   12.7724    magn:    2.2674    constr:    0.0000
     atom:    3    charge:   12.7724    magn:    2.2674    constr:    0.0000
     atom:    4    charge:   12.7266    magn:    1.8780    constr:    0.0000
     atom:    5    charge:    4.0540    magn:   -0.0479    constr:    0.0000

     total cpu time spent up to now is      236.2 secs

     total energy              =   -1345.02769544 Ry
     Harris-Foulkes estimate   =   -1345.10808805 Ry
     estimated scf accuracy    <       0.54914982 Ry

     total magnetization       =    10.75 Bohr mag/cell
     absolute magnetization    =    11.16 Bohr mag/cell

     iteration #  5     ecut=   170.00 Ry     beta=0.70
     Davidson diagonalization with overlap
     ethr =  7.96E-04,  avg # of iterations =  3.3

     negative rho (up, down):  0.000E+00 3.945E-04
 
     Magnetic moment per site:
     atom:    1    charge:   12.8328    magn:    2.1637    constr:    0.0000
     atom:    2    charge:   12.8328    magn:    2.1637    constr:    0.0000
     atom:    3    charge:   12.8328    magn:    2.1637    constr:    0.0000
     atom:    4    charge:   12.8037    magn:    2.0376    constr:    0.0000
     atom:    5    charge:    4.1097    magn:   -0.0265    constr:    0.0000

     total cpu time spent up to now is      293.3 secs

     total energy              =   -1345.11336610 Ry
     Harris-Foulkes estimate   =   -1345.20471656 Ry
     estimated scf accuracy    <       0.25126611 Ry

     total magnetization       =     9.59 Bohr mag/cell
     absolute magnetization    =     9.95 Bohr mag/cell

     iteration #  6     ecut=   170.00 Ry     beta=0.70
     Davidson diagonalization with overlap
     ethr =  3.64E-04,  avg # of iterations =  3.0

     negative rho (up, down):  0.000E+00 3.125E-04
 
     Magnetic moment per site:
     atom:    1    charge:   12.8271    magn:    2.1149    constr:    0.0000
     atom:    2    charge:   12.8271    magn:    2.1149    constr:    0.0000
     atom:    3    charge:   12.8271    magn:    2.1149    constr:    0.0000
     atom:    4    charge:   12.7932    magn:    2.3684    constr:    0.0000
     atom:    5    charge:    4.1121    magn:    0.0068    constr:    0.0000

     total cpu time spent up to now is      347.3 secs

     total energy              =   -1345.16185613 Ry
     Harris-Foulkes estimate   =   -1345.15749220 Ry
     estimated scf accuracy    <       0.02588242 Ry

     total magnetization       =     9.38 Bohr mag/cell
     absolute magnetization    =     9.72 Bohr mag/cell

     iteration #  7     ecut=   170.00 Ry     beta=0.70
     Davidson diagonalization with overlap
     ethr =  3.75E-05,  avg # of iterations =  1.7

     negative rho (up, down):  0.000E+00 3.234E-04
 
     Magnetic moment per site:
     atom:    1    charge:   12.8279    magn:    1.9562    constr:    0.0000
     atom:    2    charge:   12.8279    magn:    1.9562    constr:    0.0000
     atom:    3    charge:   12.8279    magn:    1.9562    constr:    0.0000
     atom:    4    charge:   12.7728    magn:    2.8115    constr:    0.0000
     atom:    5    charge:    4.1113    magn:    0.0392    constr:    0.0000

     total cpu time spent up to now is      395.4 secs

     total energy              =   -1345.16174117 Ry
     Harris-Foulkes estimate   =   -1345.16363742 Ry
     estimated scf accuracy    <       0.01801086 Ry

     total magnetization       =     9.38 Bohr mag/cell
     absolute magnetization    =     9.71 Bohr mag/cell

     iteration #  8     ecut=   170.00 Ry     beta=0.70
     Davidson diagonalization with overlap
     ethr =  2.61E-05,  avg # of iterations =  2.2

     negative rho (up, down):  0.000E+00 3.084E-04
 
     Magnetic moment per site:
     atom:    1    charge:   12.8309    magn:    1.8618    constr:    0.0000
     atom:    2    charge:   12.8309    magn:    1.8618    constr:    0.0000
     atom:    3    charge:   12.8309    magn:    1.8618    constr:    0.0000
     atom:    4    charge:   12.7753    magn:    2.7243    constr:    0.0000
     atom:    5    charge:    4.1092    magn:    0.0309    constr:    0.0000

     total cpu time spent up to now is      445.9 secs

     total energy              =   -1345.16681031 Ry
     Harris-Foulkes estimate   =   -1345.16581990 Ry
     estimated scf accuracy    <       0.00208284 Ry

     total magnetization       =     9.00 Bohr mag/cell
     absolute magnetization    =     9.35 Bohr mag/cell

     iteration #  9     ecut=   170.00 Ry     beta=0.70
     Davidson diagonalization with overlap
     ethr =  3.02E-06,  avg # of iterations =  2.0

     negative rho (up, down):  0.000E+00 3.607E-04
 
     Magnetic moment per site:
     atom:    1    charge:   12.8288    magn:    1.9968    constr:    0.0000
     atom:    2    charge:   12.8288    magn:    1.9968    constr:    0.0000
     atom:    3    charge:   12.8288    magn:    1.9968    constr:    0.0000
     atom:    4    charge:   12.7743    magn:    2.7562    constr:    0.0000
     atom:    5    charge:    4.1141    magn:    0.0387    constr:    0.0000

     total cpu time spent up to now is      494.3 secs

     total energy              =   -1345.16417637 Ry
     Harris-Foulkes estimate   =   -1345.16762893 Ry
     estimated scf accuracy    <       0.00201334 Ry

     total magnetization       =     8.58 Bohr mag/cell
     absolute magnetization    =     8.96 Bohr mag/cell

     iteration # 10     ecut=   170.00 Ry     beta=0.70
     Davidson diagonalization with overlap
     ethr =  2.92E-06,  avg # of iterations =  2.0

     negative rho (up, down):  0.000E+00 4.188E-04
 
     Magnetic moment per site:
     atom:    1    charge:   12.8274    magn:    2.0752    constr:    0.0000
     atom:    2    charge:   12.8274    magn:    2.0752    constr:    0.0000
     atom:    3    charge:   12.8274    magn:    2.0752    constr:    0.0000
     atom:    4    charge:   12.7752    magn:    2.7420    constr:    0.0000
     atom:    5    charge:    4.1174    magn:    0.0448    constr:    0.0000

     total cpu time spent up to now is      542.9 secs

     total energy              =   -1345.16415153 Ry
     Harris-Foulkes estimate   =   -1345.16566784 Ry
     estimated scf accuracy    <       0.00220013 Ry

     total magnetization       =     9.10 Bohr mag/cell
     absolute magnetization    =     9.44 Bohr mag/cell

     iteration # 11     ecut=   170.00 Ry     beta=0.70
     Davidson diagonalization with overlap
     ethr =  2.92E-06,  avg # of iterations =  1.5

     negative rho (up, down):  0.000E+00 2.500E-04
 
     Magnetic moment per site:
     atom:    1    charge:   12.8339    magn:    1.7314    constr:    0.0000
     atom:    2    charge:   12.8339    magn:    1.7314    constr:    0.0000
     atom:    3    charge:   12.8339    magn:    1.7314    constr:    0.0000
     atom:    4    charge:   12.7752    magn:    2.6948    constr:    0.0000
     atom:    5    charge:    4.1046    magn:    0.0144    constr:    0.0000

     total cpu time spent up to now is      590.5 secs

     total energy              =   -1345.16106136 Ry
     Harris-Foulkes estimate   =   -1345.16458044 Ry
     estimated scf accuracy    <       0.00279926 Ry

     total magnetization       =     9.32 Bohr mag/cell
     absolute magnetization    =     9.65 Bohr mag/cell

     iteration # 12     ecut=   170.00 Ry     beta=0.70
     Davidson diagonalization with overlap
     ethr =  2.92E-06,  avg # of iterations =  3.0

     negative rho (up, down):  0.000E+00 1.927E-04
 
     Magnetic moment per site:
     atom:    1    charge:   12.8419    magn:    1.2829    constr:    0.0000
     atom:    2    charge:   12.8419    magn:    1.2829    constr:    0.0000
     atom:    3    charge:   12.8419    magn:    1.2829    constr:    0.0000
     atom:    4    charge:   12.7742    magn:    2.6491    constr:    0.0000
     atom:    5    charge:    4.0868    magn:   -0.0263    constr:    0.0000

     total cpu time spent up to now is      647.7 secs

     total energy              =   -1345.15894120 Ry
     Harris-Foulkes estimate   =   -1345.16968981 Ry
     estimated scf accuracy    <       0.00133847 Ry

     total magnetization       =     8.21 Bohr mag/cell
     absolute magnetization    =     8.59 Bohr mag/cell

     iteration # 13     ecut=   170.00 Ry     beta=0.70
     Davidson diagonalization with overlap
     ethr =  1.94E-06,  avg # of iterations =  3.4

     negative rho (up, down):  0.000E+00 1.897E-04
 
     Magnetic moment per site:
     atom:    1    charge:   12.8441    magn:    1.1751    constr:    0.0000
     atom:    2    charge:   12.8441    magn:    1.1751    constr:    0.0000
     atom:    3    charge:   12.8441    magn:    1.1751    constr:    0.0000
     atom:    4    charge:   12.7741    magn:    2.6454    constr:    0.0000
     atom:    5    charge:    4.0823    magn:   -0.0369    constr:    0.0000

     total cpu time spent up to now is      714.5 secs

     total energy              =   -1345.16858444 Ry
     Harris-Foulkes estimate   =   -1345.17022424 Ry
     estimated scf accuracy    <       0.00073974 Ry

     total magnetization       =     7.15 Bohr mag/cell
     absolute magnetization    =     7.52 Bohr mag/cell

     iteration # 14     ecut=   170.00 Ry     beta=0.70
     Davidson diagonalization with overlap
     ethr =  1.07E-06,  avg # of iterations =  2.4

     negative rho (up, down):  0.000E+00 1.929E-04
 
     Magnetic moment per site:
     atom:    1    charge:   12.8433    magn:    1.2328    constr:    0.0000
     atom:    2    charge:   12.8433    magn:    1.2328    constr:    0.0000
     atom:    3    charge:   12.8433    magn:    1.2328    constr:    0.0000
     atom:    4    charge:   12.7742    magn:    2.6525    constr:    0.0000
     atom:    5    charge:    4.0837    magn:   -0.0330    constr:    0.0000

     total cpu time spent up to now is      766.2 secs

     total energy              =   -1345.16968738 Ry
     Harris-Foulkes estimate   =   -1345.16930115 Ry
     estimated scf accuracy    <       0.00166770 Ry

     total magnetization       =     6.89 Bohr mag/cell
     absolute magnetization    =     7.25 Bohr mag/cell

     iteration # 15     ecut=   170.00 Ry     beta=0.70
     Davidson diagonalization with overlap
     ethr =  1.07E-06,  avg # of iterations =  1.5

     negative rho (up, down):  0.000E+00 1.935E-04
 
     Magnetic moment per site:
     atom:    1    charge:   12.8444    magn:    1.1911    constr:    0.0000
     atom:    2    charge:   12.8444    magn:    1.1911    constr:    0.0000
     atom:    3    charge:   12.8444    magn:    1.1911    constr:    0.0000
     atom:    4    charge:   12.7746    magn:    2.6584    constr:    0.0000
     atom:    5    charge:    4.0817    magn:   -0.0386    constr:    0.0000

     total cpu time spent up to now is      813.5 secs

     total energy              =   -1345.16949528 Ry
     Harris-Foulkes estimate   =   -1345.16989273 Ry
     estimated scf accuracy    <       0.00115890 Ry

     total magnetization       =     7.03 Bohr mag/cell
     absolute magnetization    =     7.40 Bohr mag/cell

     iteration # 16     ecut=   170.00 Ry     beta=0.70
     Davidson diagonalization with overlap
     ethr =  1.07E-06,  avg # of iterations =  1.1

     negative rho (up, down):  0.000E+00 2.159E-04
 
     Magnetic moment per site:
     atom:    1    charge:   12.8407    magn:    1.4190    constr:    0.0000
     atom:    2    charge:   12.8407    magn:    1.4190    constr:    0.0000
     atom:    3    charge:   12.8407    magn:    1.4190    constr:    0.0000
     atom:    4    charge:   12.7747    magn:    2.6996    constr:    0.0000
     atom:    5    charge:    4.0868    magn:   -0.0285    constr:    0.0000

     total cpu time spent up to now is      860.5 secs

     total energy              =   -1345.16748601 Ry
     Harris-Foulkes estimate   =   -1345.16960103 Ry
     estimated scf accuracy    <       0.00164211 Ry

     total magnetization       =     6.94 Bohr mag/cell
     absolute magnetization    =     7.30 Bohr mag/cell

     iteration # 17     ecut=   170.00 Ry     beta=0.70
     Davidson diagonalization with overlap
     ethr =  1.07E-06,  avg # of iterations =  3.1

     negative rho (up, down):  0.000E+00 2.115E-04
 
     Magnetic moment per site:
     atom:    1    charge:   12.8400    magn:    1.4471    constr:    0.0000
     atom:    2    charge:   12.8400    magn:    1.4471    constr:    0.0000
     atom:    3    charge:   12.8400    magn:    1.4471    constr:    0.0000
     atom:    4    charge:   12.7746    magn:    2.6907    constr:    0.0000
     atom:    5    charge:    4.0886    magn:   -0.0241    constr:    0.0000

     total cpu time spent up to now is      920.2 secs

     total energy              =   -1345.17086266 Ry
     Harris-Foulkes estimate   =   -1345.17093964 Ry
     estimated scf accuracy    <       0.00181421 Ry

     total magnetization       =     7.55 Bohr mag/cell
     absolute magnetization    =     7.89 Bohr mag/cell

     iteration # 18     ecut=   170.00 Ry     beta=0.70
     Davidson diagonalization with overlap
     ethr =  1.07E-06,  avg # of iterations =  1.0

     negative rho (up, down):  0.000E+00 1.994E-04
 
     Magnetic moment per site:
     atom:    1    charge:   12.8385    magn:    1.4514    constr:    0.0000
     atom:    2    charge:   12.8385    magn:    1.4514    constr:    0.0000
     atom:    3    charge:   12.8385    magn:    1.4514    constr:    0.0000
     atom:    4    charge:   12.7738    magn:    2.6675    constr:    0.0000
     atom:    5    charge:    4.0916    magn:   -0.0142    constr:    0.0000

     total cpu time spent up to now is      967.2 secs

     total energy              =   -1345.17083900 Ry
     Harris-Foulkes estimate   =   -1345.17091918 Ry
     estimated scf accuracy    <       0.00106831 Ry

     total magnetization       =     7.61 Bohr mag/cell
     absolute magnetization    =     7.95 Bohr mag/cell

     iteration # 19     ecut=   170.00 Ry     beta=0.70
     Davidson diagonalization with overlap
     ethr =  1.07E-06,  avg # of iterations =  1.7

     negative rho (up, down):  0.000E+00 1.998E-04
 
     Magnetic moment per site:
     atom:    1    charge:   12.8373    magn:    1.5121    constr:    0.0000
     atom:    2    charge:   12.8373    magn:    1.5121    constr:    0.0000
     atom:    3    charge:   12.8373    magn:    1.5121    constr:    0.0000
     atom:    4    charge:   12.7738    magn:    2.6693    constr:    0.0000
     atom:    5    charge:    4.0942    magn:   -0.0080    constr:    0.0000

     total cpu time spent up to now is     1014.6 secs

     total energy              =   -1345.17064378 Ry
     Harris-Foulkes estimate   =   -1345.17091195 Ry
     estimated scf accuracy    <       0.00010866 Ry

     total magnetization       =     7.59 Bohr mag/cell
     absolute magnetization    =     7.94 Bohr mag/cell

     iteration # 20     ecut=   170.00 Ry     beta=0.70
     Davidson diagonalization with overlap
     ethr =  1.57E-07,  avg # of iterations =  3.0

     negative rho (up, down):  0.000E+00 1.962E-04
 
     Magnetic moment per site:
     atom:    1    charge:   12.8375    magn:    1.4788    constr:    0.0000
     atom:    2    charge:   12.8375    magn:    1.4788    constr:    0.0000
     atom:    3    charge:   12.8375    magn:    1.4788    constr:    0.0000
     atom:    4    charge:   12.7737    magn:    2.6595    constr:    0.0000
     atom:    5    charge:    4.0937    magn:   -0.0077    constr:    0.0000

     total cpu time spent up to now is     1070.5 secs

     total energy              =   -1345.17085251 Ry
     Harris-Foulkes estimate   =   -1345.17088695 Ry
     estimated scf accuracy    <       0.00011685 Ry

     total magnetization       =     7.75 Bohr mag/cell
     absolute magnetization    =     8.10 Bohr mag/cell

     iteration # 21     ecut=   170.00 Ry     beta=0.70
     Davidson diagonalization with overlap
     ethr =  1.57E-07,  avg # of iterations =  2.2

     negative rho (up, down):  0.000E+00 1.947E-04
 
     Magnetic moment per site:
     atom:    1    charge:   12.8374    magn:    1.4826    constr:    0.0000
     atom:    2    charge:   12.8374    magn:    1.4826    constr:    0.0000
     atom:    3    charge:   12.8374    magn:    1.4826    constr:    0.0000
     atom:    4    charge:   12.7737    magn:    2.6563    constr:    0.0000
     atom:    5    charge:    4.0943    magn:   -0.0056    constr:    0.0000

     total cpu time spent up to now is     1119.9 secs

     total energy              =   -1345.17092948 Ry
     Harris-Foulkes estimate   =   -1345.17092878 Ry
     estimated scf accuracy    <       0.00002230 Ry

     total magnetization       =     7.66 Bohr mag/cell
     absolute magnetization    =     8.01 Bohr mag/cell

     iteration # 22     ecut=   170.00 Ry     beta=0.70
     Davidson diagonalization with overlap
     ethr =  3.23E-08,  avg # of iterations =  1.7

     negative rho (up, down):  0.000E+00 1.934E-04
 
     Magnetic moment per site:
     atom:    1    charge:   12.8372    magn:    1.4885    constr:    0.0000
     atom:    2    charge:   12.8372    magn:    1.4885    constr:    0.0000
     atom:    3    charge:   12.8372    magn:    1.4885    constr:    0.0000
     atom:    4    charge:   12.7739    magn:    2.6535    constr:    0.0000
     atom:    5    charge:    4.0950    magn:   -0.0031    constr:    0.0000

     total cpu time spent up to now is     1167.9 secs

     total energy              =   -1345.17092962 Ry
     Harris-Foulkes estimate   =   -1345.17093248 Ry
     estimated scf accuracy    <       0.00000411 Ry

     total magnetization       =     7.67 Bohr mag/cell
     absolute magnetization    =     8.02 Bohr mag/cell

     iteration # 23     ecut=   170.00 Ry     beta=0.70
     Davidson diagonalization with overlap
     ethr =  5.95E-09,  avg # of iterations =  2.7

     negative rho (up, down):  0.000E+00 1.936E-04
 
     Magnetic moment per site:
     atom:    1    charge:   12.8373    magn:    1.4873    constr:    0.0000
     atom:    2    charge:   12.8373    magn:    1.4873    constr:    0.0000
     atom:    3    charge:   12.8373    magn:    1.4873    constr:    0.0000
     atom:    4    charge:   12.7738    magn:    2.6541    constr:    0.0000
     atom:    5    charge:    4.0948    magn:   -0.0036    constr:    0.0000

     total cpu time spent up to now is     1221.7 secs

     total energy              =   -1345.17093358 Ry
     Harris-Foulkes estimate   =   -1345.17093380 Ry
     estimated scf accuracy    <       0.00000060 Ry

     total magnetization       =     7.68 Bohr mag/cell
     absolute magnetization    =     8.03 Bohr mag/cell

     iteration # 24     ecut=   170.00 Ry     beta=0.70
     Davidson diagonalization with overlap
     ethr =  8.63E-10,  avg # of iterations =  2.3

     negative rho (up, down):  0.000E+00 1.936E-04
 
     Magnetic moment per site:
     atom:    1    charge:   12.8373    magn:    1.4875    constr:    0.0000
     atom:    2    charge:   12.8373    magn:    1.4875    constr:    0.0000
     atom:    3    charge:   12.8373    magn:    1.4875    constr:    0.0000
     atom:    4    charge:   12.7739    magn:    2.6540    constr:    0.0000
     atom:    5    charge:    4.0948    magn:   -0.0036    constr:    0.0000

     total cpu time spent up to now is     1271.9 secs

     total energy              =   -1345.17093377 Ry
     Harris-Foulkes estimate   =   -1345.17093377 Ry
     estimated scf accuracy    <       0.00000004 Ry

     total magnetization       =     7.68 Bohr mag/cell
     absolute magnetization    =     8.03 Bohr mag/cell

     iteration # 25     ecut=   170.00 Ry     beta=0.70
     Davidson diagonalization with overlap
     ethr =  6.30E-11,  avg # of iterations =  2.2

     negative rho (up, down):  0.000E+00 1.935E-04
 
     Magnetic moment per site:
     atom:    1    charge:   12.8373    magn:    1.4878    constr:    0.0000
     atom:    2    charge:   12.8373    magn:    1.4878    constr:    0.0000
     atom:    3    charge:   12.8373    magn:    1.4878    constr:    0.0000
     atom:    4    charge:   12.7738    magn:    2.6538    constr:    0.0000
     atom:    5    charge:    4.0948    magn:   -0.0036    constr:    0.0000

     total cpu time spent up to now is     1322.3 secs

     total energy              =   -1345.17093378 Ry
     Harris-Foulkes estimate   =   -1345.17093378 Ry
     estimated scf accuracy    <       0.00000001 Ry

     total magnetization       =     7.68 Bohr mag/cell
     absolute magnetization    =     8.03 Bohr mag/cell

     iteration # 26     ecut=   170.00 Ry     beta=0.70
     Davidson diagonalization with overlap
     ethr =  1.81E-11,  avg # of iterations =  2.5

     negative rho (up, down):  0.000E+00 1.934E-04
 
     Magnetic moment per site:
     atom:    1    charge:   12.8373    magn:    1.4878    constr:    0.0000
     atom:    2    charge:   12.8373    magn:    1.4878    constr:    0.0000
     atom:    3    charge:   12.8373    magn:    1.4878    constr:    0.0000
     atom:    4    charge:   12.7739    magn:    2.6537    constr:    0.0000
     atom:    5    charge:    4.0948    magn:   -0.0036    constr:    0.0000

     total cpu time spent up to now is     1374.3 secs

     End of self-consistent calculation

 ------ SPIN UP ------------


          k = 0.0000 0.0000 0.0000 ( 12533 PWs)   bands (ev):

   -69.9378 -69.2604 -69.2060 -69.2060 -35.9987 -35.9987 -35.9987 -35.6165
   -35.6165 -35.6165 -35.1593 -35.1593 -35.1593 -35.1527 -35.1527 -35.1527
     0.3455  11.4280  13.3303  13.3303  13.3303  13.8394  13.8394  14.1048
    14.1048  14.1048  16.0920  16.0920  16.0920  17.1981  17.1981  17.8459
    17.8459  18.3979  18.3979  18.3979  18.4656  18.4656  18.4656  18.4672
    21.8872  23.7552

          k = 0.0000 0.0000 0.1111 ( 12537 PWs)   bands (ev):

   -69.9377 -69.2590 -69.2075 -69.2060 -35.9977 -35.9977 -35.9973 -35.6154
   -35.6154 -35.6143 -35.1603 -35.1603 -35.1596 -35.1575 -35.1539 -35.1539
     0.4152  11.4853  12.9271  13.1103  13.1103  13.9187  13.9304  14.1571
    14.3439  14.3439  16.0274  16.1460  16.1460  17.2212  17.2570  17.8144
    17.8699  18.3136  18.3136  18.3978  18.3978  18.3980  18.4061  18.4645
    21.9632  23.2362

          k = 0.0000 0.0000 0.2222 ( 12549 PWs)   bands (ev):

   -69.9374 -69.2550 -69.2116 -69.2060 -35.9952 -35.9952 -35.9939 -35.6123
   -35.6123 -35.6083 -35.1701 -35.1632 -35.1632 -35.1603 -35.1567 -35.1567
     0.6002  11.3377  12.5042  12.7672  12.7672  14.0810  14.1352  14.3087
    14.7507  14.7507  15.8446  16.2720  16.2720  17.1941  17.2855  17.7242
    17.7685  17.9540  17.9540  18.2391  18.3984  18.4012  18.4012  18.4618
    22.1772  22.5168

          k = 0.0000 0.0000 0.3333 ( 12553 PWs)   bands (ev):

   -69.9371 -69.2493 -69.2176 -69.2059 -35.9923 -35.9923 -35.9900 -35.6088
   -35.6088 -35.6008 -35.1850 -35.1669 -35.1669 -35.1612 -35.1596 -35.1596
     0.8281  10.6696  12.4972  12.4972  12.8458  14.1974  14.4172  14.5420
    15.1425  15.1425  15.5759  16.3645  16.3645  16.9835  17.3211  17.3613
    17.5813  17.5813  17.6123  18.0169  18.3988  18.4142  18.4142  18.4590
    22.0439  22.5713

          k = 0.0000 0.0000 0.4444 ( 12544 PWs)   bands (ev):

   -69.9369 -69.2440 -69.2231 -69.2059 -35.9904 -35.9904 -35.9875 -35.6065
   -35.6065 -35.5955 -35.1952 -35.1695 -35.1695 -35.1617 -35.1613 -35.1613
     0.9889  10.1828  12.3530  12.3530  13.4005  14.1246  14.6315  14.8076
    15.2871  15.4346  15.4346  16.3333  16.3333  16.7318  16.9436  17.3458
    17.3740  17.3740  17.6398  17.8042  18.3991  18.4295  18.4295  18.4573
    21.9106  22.7891

          k = 0.0000 0.1111 0.1111 ( 12557 PWs)   bands (ev):

   -69.9376 -69.2576 -69.2081 -69.2067 -35.9980 -35.9967 -35.9951 -35.6265
   -35.6141 -35.6000 -35.1706 -35.1613 -35.1609 -35.1576 -35.1552 -35.1488
     0.4850  11.5393  12.6985  12.8567  12.9537  13.9959  14.0037  14.2122
    14.4868  14.5133  16.0037  16.1626  16.1924  17.2486  17.2725  17.7257
    17.7830  18.2259  18.2637  18.3177  18.3241  18.4099  18.4786  18.5422
    22.0238  23.4380

          k = 0.0000 0.1111 0.2222 ( 12548 PWs)   bands (ev):

   -69.9373 -69.2538 -69.2119 -69.2070 -35.9965 -35.9943 -35.9918 -35.6340
   -35.6109 -35.5840 -35.1860 -35.1658 -35.1640 -35.1588 -35.1582 -35.1445
     0.6703  11.3589  12.2604  12.6629  12.6764  14.1570  14.2065  14.3622
    14.8142  14.8587  15.8415  16.2812  16.2887  17.1596  17.3232  17.4379
    17.5841  17.9113  18.1397  18.1981  18.2416  18.3836  18.5580  18.6820
    22.2025  22.6700

          k = 0.0000 0.1111 0.3333 ( 12541 PWs)   bands (ev):

   -69.9370 -69.2482 -69.2177 -69.2070 -35.9937 -35.9915 -35.9892 -35.6378
   -35.6073 -35.5700 -35.2012 -35.1708 -35.1676 -35.1612 -35.1607 -35.1423
     0.8986  10.6614  12.1383  12.4160  12.9458  14.2825  14.4858  14.5911
    15.1749  15.2144  15.5802  16.2916  16.3933  16.9292  17.0974  17.2656
    17.4902  17.5574  17.8562  18.0732  18.1793  18.3772  18.6296  18.6756
    22.2615  22.4502

          k = 0.0000 0.1111 0.4444 ( 12514 PWs)   bands (ev):

   -69.9369 -69.2429 -69.2231 -69.2070 -35.9912 -35.9897 -35.9881 -35.6390
   -35.6048 -35.5616 -35.2110 -35.1740 -35.1703 -35.1630 -35.1621 -35.1414
     1.0599  10.1713  12.0376  12.2805  13.4692  14.2192  14.7009  14.8574
    15.2905  15.4586  15.4812  16.1376  16.3912  16.6628  16.8637  17.2553
    17.3553  17.4654  17.7078  17.8993  18.1431  18.3752  18.6537  18.6756
    22.1428  22.6121

          k = 0.0000 0.2222 0.2222 ( 12528 PWs)   bands (ev):

   -69.9371 -69.2501 -69.2136 -69.2091 -35.9968 -35.9921 -35.9896 -35.6526
   -35.6074 -35.5586 -35.2073 -35.1684 -35.1663 -35.1618 -35.1605 -35.1309
     0.8565  11.2947  11.5675  12.4407  12.7894  14.3575  14.3835  14.5048
    15.0141  15.1101  15.7596  16.2748  16.3627  17.0224  17.0276  17.3103
    17.4584  17.7424  18.0342  18.0882  18.2576  18.3348  18.7083  18.9941
    22.1158  22.9984

          k = 0.0000 0.2222 0.3333 ( 12527 PWs)   bands (ev):

   -69.9369 -69.2448 -69.2182 -69.2100 -35.9954 -35.9895 -35.9890 -35.6650
   -35.6033 -35.5379 -35.2254 -35.1713 -35.1696 -35.1653 -35.1628 -35.1219
     1.0864  10.6284  11.3677  12.2332  13.1801  14.5162  14.6611  14.7161
    15.2786  15.3904  15.5579  16.0662  16.4958  16.7576  16.8083  17.1020
    17.4754  17.6356  17.8027  17.9576  18.1966  18.3519  18.8356  19.0290
    21.9455  22.8233

          k = 0.0000 0.2222 0.4444 ( 12515 PWs)   bands (ev):

   -69.9367 -69.2397 -69.2232 -69.2102 -35.9930 -35.9900 -35.9879 -35.6710
   -35.6006 -35.5261 -35.2358 -35.1731 -35.1722 -35.1673 -35.1643 -35.1174
     1.2492  10.1368  11.3031  12.1145  13.6797  14.4691  14.8908  14.9677
    15.2993  15.4956  15.5994  15.8225  16.5516  16.5535  16.6111  17.0966
    17.2977  17.5286  17.8746  17.8797  18.1775  18.2113  18.9123  18.9628
    21.9126  22.7455

          k = 0.0000 0.3333 0.3333 ( 12518 PWs)   bands (ev):

   -69.9367 -69.2399 -69.2198 -69.2134 -35.9958 -35.9903 -35.9873 -35.6844
   -35.5987 -35.5126 -35.2449 -35.1721 -35.1712 -35.1699 -35.1653 -35.1070
     1.3189  10.5582  10.5958  12.0537  13.5741  14.8383  14.8434  14.8881
    15.4138  15.4602  15.5949  15.7405  16.5549  16.6479  16.6577  16.8987
    17.3281  17.6091  17.7580  17.9052  18.0436  18.5478  19.0042  19.1743
    21.2660  23.3554

          k = 0.0000 0.3333 0.4444 ( 12517 PWs)   bands (ev):

   -69.9366 -69.2348 -69.2234 -69.2150 -35.9947 -35.9925 -35.9858 -35.6945
   -35.5957 -35.4985 -35.2558 -35.1743 -35.1722 -35.1712 -35.1670 -35.0994
     1.4839  10.0899  10.5351  11.9483  14.0223  14.7991  15.0849  15.1283
    15.2953  15.5098  15.5582  15.7463  16.4015  16.4738  16.7778  16.8317
    17.2032  17.3997  17.6206  17.9739  18.1738  18.5808  19.1028  19.1297
    20.9078  23.4487

          k = 0.0000 0.4444 0.4444 ( 12492 PWs)   bands (ev):

   -69.9365 -69.2292 -69.2239 -69.2201 -35.9954 -35.9945 -35.9844 -35.7068
   -35.5924 -35.4833 -35.2667 -35.1758 -35.1755 -35.1699 -35.1689 -35.0898
     1.6508  10.0557  10.0562  11.8496  14.3681  15.0248  15.1859  15.2539
    15.2590  15.4090  15.5745  15.8590  16.3137  16.3955  16.5770  16.9869
    17.1137  17.2346  17.4094  17.8575  18.3839  18.9441  19.1749  19.2129
    20.1303  23.9981

          k = 0.1111 0.1111 0.1111 ( 12563 PWs)   bands (ev):

   -69.9375 -69.2563 -69.2081 -69.2081 -35.9973 -35.9973 -35.9928 -35.6386
   -35.5989 -35.5989 -35.1737 -35.1699 -35.1699 -35.1509 -35.1491 -35.1491
     0.5548  11.5893  12.5636  12.5636  12.8354  14.0718  14.0718  14.3895
    14.3895  14.7340  15.9884  16.2021  16.2021  17.2667  17.2667  17.6641
    17.6641  17.9910  18.1230  18.3440  18.3440  18.4195  18.6407  18.6407
    22.0740  23.5625

          k = 0.1111 0.1111 0.2222 ( 12529 PWs)   bands (ev):

   -69.9372 -69.2525 -69.2121 -69.2081 -35.9963 -35.9955 -35.9896 -35.6508
   -35.5960 -35.5785 -35.1903 -35.1803 -35.1716 -35.1512 -35.1462 -35.1439
     0.7405  11.3709  12.1431  12.2978  12.7587  14.2324  14.2775  14.4624
    14.7620  15.0131  15.8441  16.2846  16.2952  17.1761  17.2939  17.3838
    17.4078  17.7634  17.9267  18.2174  18.3451  18.3561  18.8018  18.8326
    22.2206  22.8347

          k = 0.1111 0.1111 0.3333 ( 12526 PWs)   bands (ev):

   -69.9370 -69.2471 -69.2178 -69.2081 -35.9936 -35.9935 -35.9876 -35.6583
   -35.5926 -35.5610 -35.2065 -35.1890 -35.1727 -35.1529 -35.1469 -35.1398
     0.9694  10.6461  12.0639  12.0767  13.0382  14.3637  14.5547  14.6647
    15.1709  15.2802  15.5907  16.2780  16.3443  16.9168  17.0706  17.1114
    17.4308  17.6062  17.7040  18.0895  18.2499  18.3339  18.6809  18.9922
    22.4187  22.4433

          k = 0.1111 0.1111 0.4444 ( 12521 PWs)   bands (ev):

   -69.9368 -69.2418 -69.2232 -69.2081 -35.9921 -35.9903 -35.9879 -35.6616
   -35.5904 -35.5508 -35.2165 -35.1940 -35.1733 -35.1541 -35.1484 -35.1378
     1.1312  10.1542  11.9340  12.0076  13.5363  14.3072  14.7709  14.9229
    15.3009  15.4547  15.5303  16.0757  16.2781  16.6259  16.9673  17.0969
    17.3339  17.4990  17.7090  17.9300  18.1841  18.3236  18.5237  19.0837
    22.3367  22.5621

          k = 0.1111 0.2222 0.2222 ( 12537 PWs)   bands (ev):

   -69.9370 -69.2490 -69.2136 -69.2103 -35.9967 -35.9946 -35.9872 -35.6710
   -35.5868 -35.5577 -35.2084 -35.1854 -35.1819 -35.1467 -35.1458 -35.1312
     0.9272  11.2970  11.4890  12.0698  12.8955  14.4280  14.4565  14.6310
    14.9389  15.2086  15.7701  16.2696  16.3400  17.0316  17.0916  17.2141
    17.3956  17.5441  17.7219  18.2478  18.2496  18.3215  19.0775  19.1103
    22.1894  23.1063

          k = 0.1111 0.2222 0.3333 ( 12525 PWs)   bands (ev):

   -69.9368 -69.2439 -69.2182 -69.2109 -35.9957 -35.9932 -35.9865 -35.6852
   -35.5823 -35.5363 -35.2257 -35.1940 -35.1840 -35.1477 -35.1445 -35.1219
     1.1580  10.5980  11.3112  11.9147  13.2656  14.5774  14.7280  14.8334
    15.2636  15.3763  15.5836  16.1022  16.3719  16.7650  16.9124  17.0313
    17.4418  17.4780  17.6144  18.1518  18.1974  18.2543  18.9965  19.3336
    22.0568  22.8860

          k = 0.1111 0.2222 0.4444 ( 12540 PWs)   bands (ev):

   -69.9367 -69.2388 -69.2233 -69.2111 -35.9941 -35.9919 -35.9874 -35.6923
   -35.5798 -35.5238 -35.2357 -35.1996 -35.1845 -35.1485 -35.1445 -35.1173
     1.3215  10.1072  11.2411  11.8216  13.7357  14.5291  14.9595  15.0709
    15.3032  15.4784  15.6036  15.8648  16.2988  16.5433  16.8768  16.9673
    17.3022  17.4479  17.7962  18.0500  18.1007  18.2331  18.7426  19.4751
    22.0150  22.8355

          k = 0.1111 0.3333 0.3333 ( 12528 PWs)   bands (ev):

   -69.9366 -69.2391 -69.2198 -69.2142 -35.9965 -35.9932 -35.9866 -35.7053
   -35.5768 -35.5121 -35.2439 -35.1955 -35.1927 -35.1459 -35.1444 -35.1071
     1.3917  10.5242  10.5391  11.7567  13.6359  14.8224  14.9038  15.0686
    15.3296  15.4719  15.5694  15.9048  16.3665  16.6359  16.7525  16.9583
    17.3276  17.3351  17.7952  18.0111  18.1085  18.3393  19.2233  19.4678
    21.3616  23.2562

          k = 0.1111 0.3333 0.4444 ( 12508 PWs)   bands (ev):

   -69.9365 -69.2342 -69.2234 -69.2156 -35.9958 -35.9941 -35.9870 -35.7159
   -35.5739 -35.4981 -35.2541 -35.1998 -35.1939 -35.1456 -35.1444 -35.0994
     1.5577  10.0487  10.4832  11.6623  14.0409  14.7948  15.0909  15.2862
    15.2943  15.5093  15.5622  15.9172  16.2895  16.4460  16.7280  16.9207
    17.2026  17.3106  17.8564  17.9763  18.0302  18.4887  19.0168  19.6592
    20.9537  23.3824

          k = 0.1111 0.4444 0.4444 ( 12499 PWs)   bands (ev):

   -69.9364 -69.2290 -69.2239 -69.2204 -35.9966 -35.9959 -35.9867 -35.7285
   -35.5706 -35.4832 -35.2644 -35.1997 -35.1993 -35.1447 -35.1444 -35.0898
     1.7260  10.0073  10.0093  11.5674  14.3230  14.9816  15.0452  15.2045
    15.5459  15.5518  15.6298  16.0533  16.2557  16.3616  16.5045  16.9235
    17.1739  17.2214  17.6744  17.9342  18.0854  18.8777  19.1701  19.7000
    20.1195  23.7362

          k = 0.2222 0.2222 0.2222 ( 12524 PWs)   bands (ev):

   -69.9369 -69.2458 -69.2136 -69.2136 -35.9967 -35.9967 -35.9855 -35.6966
   -35.5553 -35.5553 -35.2159 -35.1986 -35.1986 -35.1337 -35.1337 -35.1296
     1.1157  11.2708  11.3111  11.3111  13.1132  14.6222  14.6222  14.9418
    14.9418  15.3039  15.7316  16.2793  16.2793  16.9690  16.9690  17.2822
    17.2822  17.2921  17.4269  18.2283  18.2283  18.3814  19.4144  19.4144
    22.2834  23.0621

          k = 0.2222 0.2222 0.3333 ( 12517 PWs)   bands (ev):

   -69.9367 -69.2411 -69.2184 -69.2135 -35.9966 -35.9966 -35.9861 -35.7158
   -35.5526 -35.5293 -35.2299 -35.2115 -35.2012 -35.1336 -35.1259 -35.1201
     1.3490  10.5167  11.1352  11.2354  13.4787  14.7337  14.8918  15.1005
    15.2916  15.2954  15.6688  16.1477  16.2339  16.7240  16.7859  17.1815
    17.1843  17.3772  17.5204  18.1613  18.2195  18.3161  19.2415  19.7639
    22.2486  22.6935

          k = 0.2222 0.2222 0.4444 ( 12513 PWs)   bands (ev):

   -69.9366 -69.2363 -69.2233 -69.2135 -35.9966 -35.9948 -35.9883 -35.7257
   -35.5508 -35.5147 -35.2389 -35.2186 -35.2015 -35.1342 -35.1225 -35.1146
     1.5148  10.0324  11.0316  11.1935  13.8846  14.6645  15.1472  15.1479
    15.4029  15.4924  15.6115  15.9864  16.1834  16.4973  16.7711  17.0061
    17.1466  17.5598  17.7230  18.0964  18.1963  18.2420  18.8106  20.0142
    22.2601  22.3755

          k = 0.2222 0.3333 0.3333 ( 12520 PWs)   bands (ev):

   -69.9366 -69.2369 -69.2198 -69.2164 -35.9983 -35.9975 -35.9880 -35.7396
   -35.5401 -35.5109 -35.2418 -35.2167 -35.2133 -35.1248 -35.1234 -35.1073
     1.5864  10.4046  10.4370  11.0620  13.7832  14.8926  14.9971  15.1535
    15.4037  15.4570  15.8014  16.1022  16.2129  16.6136  16.6340  16.9614
    17.3037  17.3488  17.6459  18.1527  18.2321  18.2818  19.4023  19.9182
    21.6311  22.6891

          k = 0.2222 0.3333 0.4444 ( 12507 PWs)   bands (ev):

   -69.9365 -69.2325 -69.2234 -69.2172 -35.9987 -35.9976 -35.9905 -35.7524
   -35.5368 -35.4966 -35.2502 -35.2226 -35.2147 -35.1243 -35.1194 -35.0994
     1.7557   9.9477  10.3577  10.9826  14.0721  14.8047  15.0271  15.2236
    15.4899  15.7146  15.8750  16.1616  16.1874  16.4231  16.6200  16.8033
    17.2858  17.5120  17.7753  18.1060  18.1693  18.3879  19.0264  20.2480
    21.0537  22.6438

          k = 0.2222 0.4444 0.4444 ( 12518 PWs)   bands (ev):

   -69.9364 -69.2282 -69.2238 -69.2211 -35.9996 -35.9993 -35.9926 -35.7668
   -35.5324 -35.4830 -35.2584 -35.2223 -35.2217 -35.1195 -35.1192 -35.0898
     1.9279   9.8897   9.8970  10.8923  14.2093  14.8978  14.9496  15.0889
    15.6722  16.0014  16.1135  16.2018  16.2631  16.3986  16.5119  16.6591
    17.4066  17.4414  17.8212  17.9826  18.1009  18.7643  19.1467  19.9406
    20.4394  22.9019

          k = 0.3333 0.3333 0.3333 ( 12505 PWs)   bands (ev):

   -69.9365 -69.2336 -69.2197 -69.2197 -36.0004 -36.0004 -35.9916 -35.7673
   -35.5095 -35.5095 -35.2429 -35.2286 -35.2286 -35.1097 -35.1097 -35.1053
     1.8295  10.2646  10.2646  10.4018  13.9568  14.9418  14.9944  14.9944
    15.6692  15.6692  16.1351  16.2176  16.2176  16.5750  16.5750  16.7363
    17.4732  17.5583  17.5583  18.2037  18.2037  18.3419  19.7535  19.7535
    21.9449  21.9449

          k = 0.3333 0.3333 0.4444 ( 12520 PWs)   bands (ev):

   -69.9364 -69.2299 -69.2234 -69.2197 -36.0017 -36.0010 -35.9953 -35.7824
   -35.5085 -35.4925 -35.2479 -35.2367 -35.2299 -35.1086 -35.1020 -35.0981
     2.0035   9.8386  10.1794  10.3014  14.0866  14.8128  14.9322  15.0658
    15.7097  15.9685  16.2180  16.2967  16.3759  16.5443  16.5847  16.7064
    17.4817  17.6853  17.7210  18.2221  18.2875  18.3193  19.0861  20.2690
    21.0590  21.9460

          k = 0.3333 0.4444 0.4444 ( 12510 PWs)   bands (ev):

   -69.9364 -69.2269 -69.2238 -69.2223 -36.0030 -36.0030 -35.9993 -35.7988
   -35.5003 -35.4828 -35.2519 -35.2385 -35.2378 -35.1004 -35.1001 -35.0898
     2.1818   9.7650   9.7772  10.1655  14.0868  14.8235  14.8778  14.9432
    15.8647  16.0630  16.2507  16.2626  16.4461  16.8097  16.8156  16.9888
    17.6308  17.6603  17.7493  18.2075  18.2599  18.5485  19.0738  19.6182
    20.9366  21.9306

          k = 0.4444 0.4444 0.4444 ( 12559 PWs)   bands (ev):

   -69.9363 -69.2254 -69.2238 -69.2238 -36.0052 -36.0052 -36.0039 -35.8164
   -35.4826 -35.4826 -35.2483 -35.2461 -35.2461 -35.0901 -35.0901 -35.0893
     2.3652   9.6880   9.6880   9.7163  14.0120  14.7927  14.8332  14.8332
    16.0114  16.0114  16.2626  16.2626  16.3290  17.4463  17.4463  17.4746
    17.7439  17.7439  17.9038  18.3143  18.3143  18.3170  18.9394  18.9394
    21.2439  21.2439

 ------ SPIN DOWN ----------


          k = 0.0000 0.0000 0.0000 ( 12533 PWs)   bands (ev):

   -67.3632 -67.3024 -67.3024 -66.5338 -33.9862 -33.9862 -33.9862 -33.2303
   -33.2303 -33.2303 -33.1916 -33.1916 -33.1916 -32.6393 -32.6393 -32.6393
     0.4465  11.7276  13.3949  13.3949  13.3949  15.2107  15.2107  15.5337
    15.5337  15.5337  18.0412  18.0412  18.0412  18.7048  18.7048  20.2820
    20.2820  20.2820  20.4081  20.4081  20.5093  20.8706  20.8706  20.8706
    23.0636  23.9612

          k = 0.0000 0.0000 0.1111 ( 12537 PWs)   bands (ev):

   -67.3615 -67.3040 -67.3024 -66.5339 -33.9850 -33.9850 -33.9845 -33.2307
   -33.2293 -33.2293 -33.1927 -33.1927 -33.1920 -32.6422 -32.6405 -32.6405
     0.5154  11.7586  13.0944  13.2814  13.2814  15.2705  15.3100  15.5909
    15.6868  15.6868  17.9635  18.1036  18.1036  18.7113  18.8015  20.2362
    20.2362  20.2822  20.3477  20.3645  20.4464  20.6202  20.6202  20.8706
    23.1050  23.6077

          k = 0.0000 0.0000 0.2222 ( 12549 PWs)   bands (ev):

   -67.3567 -67.3085 -67.3023 -66.5341 -33.9818 -33.9818 -33.9800 -33.2317
   -33.2268 -33.2268 -33.1955 -33.1955 -33.1928 -32.6496 -32.6436 -32.6436
     0.6982  11.5210  12.8548  13.0421  13.0421  15.3356  15.5856  15.7546
    16.0361  16.0361  17.7480  18.2773  18.2773  18.7207  18.8139  19.9888
    19.9888  20.1243  20.1428  20.2203  20.2203  20.2826  20.3766  20.8708
    23.0982  23.2967

          k = 0.0000 0.0000 0.3333 ( 12553 PWs)   bands (ev):

   -67.3499 -67.3151 -67.3023 -66.5344 -33.9783 -33.9783 -33.9750 -33.2328
   -33.2239 -33.2239 -33.1987 -33.1987 -33.1938 -32.6580 -32.6471 -32.6471
     0.9226  10.8627  12.8212  12.8212  13.2718  15.2192  15.9595  15.9957
    16.4089  16.4089  17.4487  18.5182  18.5182  18.5893  18.7028  19.4684
    19.4684  19.7687  19.8263  20.0529  20.0529  20.2832  20.3215  20.8710
    22.9356  23.5441

          k = 0.0000 0.0000 0.4444 ( 12544 PWs)   bands (ev):

   -67.3433 -67.3214 -67.3023 -66.5345 -33.9759 -33.9759 -33.9716 -33.2335
   -33.2221 -33.2221 -33.2007 -33.2007 -33.1945 -32.6635 -32.6494 -32.6494
     1.0805  10.3966  12.6957  12.6957  13.9347  14.7947  16.2272  16.2615
    16.6610  16.6610  17.1794  18.4156  18.6443  18.7636  18.7636  19.0531
    19.0531  19.4979  19.6038  19.9437  19.9437  20.2835  20.2854  20.8712
    22.9016  23.7480

          k = 0.0000 0.1111 0.1111 ( 12557 PWs)   bands (ev):

   -67.3598 -67.3047 -67.3032 -66.5340 -33.9977 -33.9838 -33.9690 -33.2348
   -33.2283 -33.2274 -33.1974 -33.1938 -33.1864 -32.6460 -32.6417 -32.6401
     0.5844  11.7908  12.8623  13.1407  13.1803  15.3466  15.3811  15.6568
    15.8148  15.8156  17.9272  18.1263  18.1579  18.7524  18.7969  20.1520
    20.1889  20.2135  20.2575  20.3572  20.4304  20.5233  20.5311  20.7748
    23.1399  23.8584

          k = 0.0000 0.1111 0.2222 ( 12548 PWs)   bands (ev):

   -67.3552 -67.3088 -67.3035 -66.5342 -34.0070 -33.9807 -33.9528 -33.2419
   -33.2256 -33.2252 -33.2007 -33.1967 -33.1812 -32.6524 -32.6448 -32.6423
     0.7673  11.5462  12.5128  12.9613  13.0785  15.4217  15.6385  15.8237
    16.1195  16.1288  17.7349  18.2828  18.2972  18.6948  18.7301  19.8200
    19.9570  19.9615  20.0878  20.2026  20.3614  20.3781  20.4820  20.7402
    23.2072  23.4013

          k = 0.0000 0.1111 0.3333 ( 12541 PWs)   bands (ev):

   -67.3485 -67.3152 -67.3035 -66.5344 -34.0126 -33.9771 -33.9393 -33.2489
   -33.2228 -33.2227 -33.2029 -33.1998 -33.1779 -32.6583 -32.6484 -32.6461
     0.9920  10.8684  12.4342  12.7538  13.4032  15.3132  16.0057  16.0656
    16.4580  16.4685  17.4443  18.3444  18.4939  18.5277  18.6585  19.4837
    19.5000  19.7220  19.8938  19.9377  20.2482  20.3632  20.3845  20.7409
    23.1203  23.4633

          k = 0.0000 0.1111 0.4444 ( 12514 PWs)   bands (ev):

   -67.3421 -67.3214 -67.3035 -66.5346 -34.0152 -33.9748 -33.9315 -33.2532
   -33.2210 -33.2208 -33.2042 -33.2018 -33.1765 -32.6617 -32.6507 -32.6490
     1.1502  10.3980  12.3632  12.6345  14.0098  14.9059  16.3026  16.3043
    16.6884  16.7032  17.1802  18.1821  18.3308  18.7857  18.7916  19.0850
    19.3044  19.5823  19.6173  19.8231  20.1433  20.3060  20.3649  20.7425
    23.1032  23.5995

          k = 0.0000 0.2222 0.2222 ( 12528 PWs)   bands (ev):

   -67.3509 -67.3106 -67.3057 -66.5344 -34.0284 -33.9777 -33.9262 -33.2580
   -33.2254 -33.2228 -33.2044 -33.1995 -33.1667 -32.6562 -32.6480 -32.6422
     0.9508  11.4993  11.8225  12.7781  13.2517  15.6151  15.7741  15.9975
    16.3299  16.3639  17.6311  18.2674  18.3696  18.5063  18.5788  19.6837
    19.7681  19.8180  19.9193  20.0933  20.4437  20.4478  20.5155  20.6850
    23.1193  23.9534

          k = 0.0000 0.2222 0.3333 ( 12527 PWs)   bands (ev):

   -67.3447 -67.3155 -67.3067 -66.5345 -34.0434 -33.9742 -33.9052 -33.2716
   -33.2251 -33.2196 -33.2086 -33.2027 -33.1556 -32.6579 -32.6517 -32.6447
     1.1765  10.8720  11.6513  12.5971  13.6635  15.5698  16.0779  16.2383
    16.5925  16.6218  17.4053  17.9796  18.2660  18.5838  18.5889  19.5184
    19.5367  19.7118  19.7455  19.8915  20.4107  20.4111  20.4841  20.6814
    23.0117  23.7346

          k = 0.0000 0.2222 0.4444 ( 12515 PWs)   bands (ev):

   -67.3386 -67.3213 -67.3069 -66.5347 -34.0511 -33.9720 -33.8935 -33.2793
   -33.2240 -33.2175 -33.2125 -33.2047 -33.1496 -32.6573 -32.6541 -32.6480
     1.3357  10.3962  11.6143  12.4905  14.2182  15.2001  16.3418  16.4885
    16.7635  16.8472  17.1758  17.7080  18.1343  18.6118  18.8661  19.1779
    19.3754  19.6220  19.6727  19.8137  20.3955  20.4157  20.4756  20.5145
    23.0490  23.6574

          k = 0.0000 0.3333 0.3333 ( 12518 PWs)   bands (ev):

   -67.3391 -67.3172 -67.3104 -66.5347 -34.0658 -33.9709 -33.8789 -33.2896
   -33.2275 -33.2160 -33.2158 -33.2059 -33.1379 -32.6557 -32.6555 -32.6449
     1.4040  10.8321  10.8971  12.4377  14.0754  15.8684  16.0260  16.4609
    16.7898  16.7992  17.2931  17.6316  18.0637  18.5079  18.7330  19.3589
    19.5305  19.5350  19.7314  19.9249  20.1459  20.5074  20.5140  20.8577
    22.5357  24.3135

          k = 0.0000 0.3333 0.4444 ( 12517 PWs)   bands (ev):

   -67.3334 -67.3212 -67.3120 -66.5348 -34.0775 -33.9688 -33.8646 -33.2992
   -33.2278 -33.2219 -33.2138 -33.2079 -33.1283 -32.6580 -32.6522 -32.6470
     1.5649  10.3854  10.8479  12.3422  14.5568  15.6033  16.2204  16.6898
    16.8596  17.0666  17.1527  17.3660  17.9799  18.4026  18.9745  19.2075
    19.2667  19.5030  19.5849  20.0348  20.0961  20.5260  20.5914  20.7764
    22.3311  24.3169

          k = 0.0000 0.4444 0.4444 ( 12492 PWs)   bands (ev):

   -67.3273 -67.3215 -67.3175 -66.5349 -34.0915 -33.9666 -33.8489 -33.3099
   -33.2300 -33.2283 -33.2113 -33.2100 -33.1167 -32.6606 -32.6485 -32.6468
     1.7272  10.3719  10.3759  12.2525  14.9225  15.9622  15.9823  16.8461
    16.9118  16.9142  17.1167  17.5508  17.9121  18.1334  19.0469  19.0622
    19.3046  19.4723  19.5335  19.7153  20.2628  20.5387  20.7787  20.8778
    21.8697  24.8268

          k = 0.1111 0.1111 0.1111 ( 12563 PWs)   bands (ev):

   -67.3583 -67.3047 -67.3047 -66.5341 -34.0110 -33.9679 -33.9679 -33.2357
   -33.2304 -33.2304 -33.1953 -33.1953 -33.1825 -32.6497 -32.6410 -32.6410
     0.6534  11.8237  12.7773  12.7773  13.1937  15.4347  15.4347  15.7980
    15.7980  15.9800  17.8994  18.1708  18.1708  18.7707  18.7707  20.0060
    20.1165  20.1422  20.1422  20.4008  20.4008  20.4021  20.6832  20.6832
    23.1812  24.0626

          k = 0.1111 0.1111 0.2222 ( 12529 PWs)   bands (ev):

   -67.3538 -67.3090 -67.3047 -66.5343 -34.0253 -33.9651 -33.9471 -33.2431
   -33.2377 -33.2284 -33.1952 -33.1925 -33.1768 -32.6555 -32.6433 -32.6428
     0.8365  11.5663  12.4037  12.5863  13.2016  15.5071  15.6957  15.9215
    16.1320  16.2325  17.7285  18.2746  18.2895  18.6803  18.6805  19.6474
    19.7885  19.9248  19.9927  20.2989  20.4494  20.4715  20.5382  20.7273
    23.2586  23.5524

          k = 0.1111 0.1111 0.3333 ( 12526 PWs)   bands (ev):

   -67.3472 -67.3152 -67.3046 -66.5345 -34.0350 -33.9619 -33.9300 -33.2513
   -33.2453 -33.2237 -33.1934 -33.1922 -33.1725 -32.6595 -32.6474 -32.6460
     1.0616  10.8681  12.3700  12.3992  13.5155  15.4059  16.0631  16.1449
    16.4747  16.5169  17.4470  18.2331  18.3237  18.6236  18.6586  19.2549
    19.5476  19.7154  19.8096  20.1302  20.3509  20.3763  20.5342  20.6671
    23.2545  23.4791

          k = 0.1111 0.1111 0.4444 ( 12521 PWs)   bands (ev):

   -67.3410 -67.3213 -67.3046 -66.5346 -34.0398 -33.9597 -33.9202 -33.2561
   -33.2500 -33.2196 -33.1936 -33.1920 -33.1704 -32.6603 -32.6520 -32.6477
     1.2203  10.3943  12.2895  12.3296  14.0813  15.0141  16.3634  16.3824
    16.6155  16.8203  17.1839  17.9897  18.2136  18.7873  18.8094  19.0182
    19.2799  19.6463  19.6873  20.0052  20.1069  20.3069  20.5546  20.6459
    23.2677  23.5691

          k = 0.1111 0.2222 0.2222 ( 12537 PWs)   bands (ev):

   -67.3496 -67.3105 -67.3070 -66.5344 -34.0483 -33.9562 -33.9255 -33.2585
   -33.2399 -33.2387 -33.1903 -33.1872 -33.1653 -32.6595 -32.6451 -32.6424
     1.0204  11.5143  11.7666  12.3872  13.3761  15.7045  15.8409  16.1111
    16.3314  16.3850  17.6417  18.2108  18.2629  18.5893  18.6018  19.4316
    19.5366  19.8335  19.8427  20.2439  20.4424  20.4845  20.7327  20.8287
    23.2305  23.9474

          k = 0.1111 0.2222 0.3333 ( 12525 PWs)   bands (ev):

   -67.3436 -67.3156 -67.3077 -66.5346 -34.0653 -33.9522 -33.9038 -33.2731
   -33.2495 -33.2376 -33.1874 -33.1850 -33.1547 -32.6604 -32.6481 -32.6444
     1.2468  10.8576  11.6118  12.2612  13.7621  15.6579  16.1554  16.3305
    16.5272  16.6654  17.4262  17.9406  18.1450  18.6008  18.6609  19.2781
    19.3046  19.7070  19.8063  20.0897  20.3804  20.4334  20.7264  20.8365
    23.1215  23.7699

          k = 0.1111 0.2222 0.4444 ( 12540 PWs)   bands (ev):

   -67.3377 -67.3212 -67.3078 -66.5347 -34.0741 -33.9500 -33.8914 -33.2812
   -33.2553 -33.2364 -33.1857 -33.1848 -33.1489 -32.6576 -32.6526 -32.6464
     1.4066  10.3802  11.5688  12.1837  14.2831  15.2976  16.4054  16.5687
    16.6594  16.9777  17.1956  17.6110  18.0538  18.6269  18.8411  19.0778
    19.1793  19.7031  19.8060  19.9542  20.3196  20.3831  20.4881  20.8722
    23.1473  23.7265

          k = 0.1111 0.3333 0.3333 ( 12528 PWs)   bands (ev):

   -67.3383 -67.3172 -67.3112 -66.5347 -34.0884 -33.9478 -33.8786 -33.2919
   -33.2522 -33.2488 -33.1844 -33.1826 -33.1376 -32.6593 -32.6493 -32.6442
     1.4753  10.8125  10.8549  12.1299  14.1548  15.9505  16.0733  16.5540
    16.6813  16.8733  17.3269  17.6479  17.9843  18.5074  18.7406  19.0989
    19.3924  19.5426  19.9239  19.9250  20.2618  20.4113  20.8986  20.9781
    22.5961  24.2111

          k = 0.1111 0.3333 0.4444 ( 12508 PWs)   bands (ev):

   -67.3327 -67.3212 -67.3127 -66.5348 -34.1007 -33.9455 -33.8642 -33.3020
   -33.2581 -33.2511 -33.1829 -33.1821 -33.1281 -32.6574 -32.6498 -32.6456
     1.6370  10.3570  10.8093  12.0489  14.6043  15.6785  16.2442  16.7774
    16.8628  17.0625  17.1775  17.4110  17.9284  18.4038  18.8157  18.9914
    19.3558  19.5851  19.7345  19.9966  20.1409  20.5095  20.7321  21.0731
    22.3521  24.2449

          k = 0.1111 0.4444 0.4444 ( 12499 PWs)   bands (ev):

   -67.3270 -67.3215 -67.3178 -66.5348 -34.1150 -33.9432 -33.8488 -33.3131
   -33.2602 -33.2595 -33.1815 -33.1813 -33.1166 -32.6579 -32.6469 -32.6456
     1.8004  10.3374  10.3389  11.9664  14.9331  15.9996  16.0394  16.8469
    16.9394  17.0015  17.1565  17.6200  17.8811  18.1383  18.6869  19.0344
    19.4390  19.5800  19.6275  19.9199  19.9910  20.7272  20.8655  21.1313
    21.8235  24.5856

          k = 0.2222 0.2222 0.2222 ( 12524 PWs)   bands (ev):

   -67.3459 -67.3105 -67.3105 -66.5345 -34.0771 -33.9235 -33.9235 -33.2610
   -33.2610 -33.2582 -33.1743 -33.1743 -33.1594 -32.6625 -32.6428 -32.6428
     1.2054  11.5058  11.6334  11.6334  13.6118  15.9657  15.9657  16.3812
    16.3962  16.3962  17.6135  18.0861  18.0861  18.6337  18.6337  19.2217
    19.2256  19.7409  19.7409  20.3383  20.4372  20.4372  21.0803  21.0803
    23.3974  23.8155

          k = 0.2222 0.2222 0.3333 ( 12517 PWs)   bands (ev):

   -67.3405 -67.3158 -67.3105 -66.5346 -34.0991 -33.9212 -33.8968 -33.2780
   -33.2757 -33.2611 -33.1692 -33.1638 -33.1499 -32.6615 -32.6444 -32.6433
     1.4338  10.8145  11.4943  11.5405  14.0011  15.8918  16.3474  16.3802
    16.5660  16.7440  17.4590  17.8194  17.9648  18.6058  18.6852  18.9746
    19.2132  19.6809  19.7894  20.2386  20.3909  20.4170  20.9559  21.2856
    23.3375  23.6138

          k = 0.2222 0.2222 0.4444 ( 12513 PWs)   bands (ev):

   -67.3350 -67.3212 -67.3105 -66.5347 -34.1108 -33.9197 -33.8821 -33.2875
   -33.2844 -33.2622 -33.1675 -33.1589 -33.1439 -32.6569 -32.6491 -32.6436
     1.5954  10.3374  11.4094  11.5222  14.4638  15.5469  16.4099  16.6963
    16.7871  17.0774  17.2510  17.4546  17.9244  18.6155  18.7203  18.7987
    19.2517  19.7833  19.8995  20.1211  20.3449  20.3568  20.5390  21.3920
    23.3748  23.4640

          k = 0.2222 0.3333 0.3333 ( 12520 PWs)   bands (ev):

   -67.3358 -67.3172 -67.3136 -66.5347 -34.1259 -33.9088 -33.8777 -33.2979
   -33.2823 -33.2784 -33.1583 -33.1564 -33.1367 -32.6588 -32.6434 -32.6424
     1.6654  10.7519  10.7600  11.4199  14.3574  16.1252  16.1726  16.5860
    16.7956  16.9207  17.4226  17.6827  17.8431  18.5148  18.6476  18.7611
    19.3525  19.6421  19.8904  20.1763  20.3803  20.3974  21.0670  21.4862
    22.7514  23.7080

          k = 0.2222 0.3333 0.4444 ( 12507 PWs)   bands (ev):

   -67.3309 -67.3211 -67.3144 -66.5348 -34.1404 -33.9059 -33.8630 -33.3090
   -33.2910 -33.2828 -33.1559 -33.1517 -33.1276 -32.6543 -32.6452 -32.6422
     1.8297  10.2854  10.7139  11.3581  14.7231  15.8568  16.2687  16.8384
    17.0107  17.0609  17.3087  17.5572  17.8459  18.4191  18.5338  18.7261
    19.4678  19.7472  19.9625  20.0612  20.3210  20.4543  20.7322  21.6897
    22.3542  23.6882

          k = 0.2222 0.4444 0.4444 ( 12518 PWs)   bands (ev):

   -67.3262 -67.3215 -67.3186 -66.5348 -34.1564 -33.9020 -33.8487 -33.3210
   -33.2948 -33.2941 -33.1505 -33.1503 -33.1165 -32.6513 -32.6428 -32.6423
     1.9963  10.2480  10.2521  11.2852  14.9444  16.0837  16.1701  16.6779
    17.2033  17.2399  17.3384  17.7454  17.8434  18.1949  18.3675  18.7275
    19.6941  19.7349  19.8892  19.9598  20.2299  20.6465  20.8151  21.6136
    21.8565  23.8904

          k = 0.3333 0.3333 0.3333 ( 12505 PWs)   bands (ev):

   -67.3321 -67.3171 -67.3171 -66.5348 -34.1565 -33.8766 -33.8766 -33.3056
   -33.3056 -33.2997 -33.1402 -33.1402 -33.1331 -32.6544 -32.6404 -32.6404
     1.9014  10.6412  10.6412  10.7353  14.6292  16.0840  16.4466  16.4466
    17.0958  17.0958  17.5102  17.7473  17.7473  18.4507  18.5256  18.5256
    19.5064  19.8515  19.8515  20.2898  20.3762  20.3762  21.3676  21.3676
    22.9691  22.9691

          k = 0.3333 0.3333 0.4444 ( 12520 PWs)   bands (ev):

   -67.3281 -67.3211 -67.3171 -66.5348 -34.1732 -33.8759 -33.8589 -33.3182
   -33.3143 -33.3073 -33.1375 -33.1310 -33.1254 -32.6489 -32.6410 -32.6391
     2.0697  10.2052  10.5720  10.6657  14.8543  16.0353  16.2876  16.6328
    17.3154  17.3327  17.5108  17.7317  17.8244  18.2900  18.4214  18.5173
    19.6668  19.9043  20.0203  20.2102  20.3907  20.4083  20.7761  21.7176
    22.3424  23.1532

          k = 0.3333 0.4444 0.4444 ( 12510 PWs)   bands (ev):

   -67.3248 -67.3215 -67.3199 -66.5348 -34.1911 -33.8674 -33.8485 -33.3298
   -33.3212 -33.3204 -33.1282 -33.1279 -33.1164 -32.6437 -32.6386 -32.6384
     2.2412  10.1492  10.1587  10.5579  14.9332  16.1687  16.2823  16.4796
    17.5926  17.5995  17.6672  17.8603  17.8667  18.1336  18.3002  18.4925
    19.8639  19.9512  20.0418  20.1416  20.4199  20.4855  20.7229  21.2313
    22.3663  23.1198

          k = 0.4444 0.4444 0.4444 ( 12559 PWs)   bands (ev):

   -67.3232 -67.3214 -67.3214 -66.5348 -34.2103 -33.8484 -33.8484 -33.3355
   -33.3355 -33.3345 -33.1167 -33.1167 -33.1159 -32.6382 -32.6362 -32.6362
     2.4169  10.0870  10.0870  10.1095  14.9150  16.2387  16.3300  16.3300
    17.8950  17.8950  17.9811  17.9811  17.9853  18.0025  18.3665  18.3665
    20.0132  20.0711  20.0711  20.2606  20.3449  20.3449  20.7350  20.7350
    22.6690  22.6690

     the Fermi energy is    18.7319 ev

!    total energy              =   -1345.17093378 Ry
     Harris-Foulkes estimate   =   -1345.17093379 Ry
     estimated scf accuracy    <          8.2E-09 Ry

     total all-electron energy =    -10291.772569 Ry

     The total energy is the sum of the following terms:

     one-electron contribution =    -446.73799863 Ry
     hartree contribution      =     269.20316872 Ry
     xc contribution           =    -117.08744777 Ry
     ewald contribution        =    -711.61403732 Ry
     one-center paw contrib.   =    -338.93470962 Ry
     smearing contrib. (-TS)   =       0.00009084 Ry

     total magnetization       =     7.68 Bohr mag/cell
     absolute magnetization    =     8.03 Bohr mag/cell

     convergence has been achieved in  26 iterations

     Forces acting on atoms (Ry/au):


     negative rho (up, down):  0.000E+00 1.934E-04
     atom    1 type  1   force =     0.00000000    0.00000000    0.00000000
     atom    2 type  1   force =     0.00000000    0.00000000    0.00000000
     atom    3 type  1   force =     0.00000000    0.00000000    0.00000000
     atom    4 type  1   force =     0.00000000    0.00000000    0.00000000
     atom    5 type  2   force =     0.00000000    0.00000000    0.00000000

     Total force =     0.000000     Total SCF correction =     0.000000


     entering subroutine stress ...


     negative rho (up, down):  0.000E+00 1.934E-04
          total   stress  (Ry/bohr**3)                   (kbar)     P=  150.21
   0.00102108   0.00000000   0.00000000        150.21      0.00      0.00
   0.00000000   0.00102108   0.00000000          0.00    150.21      0.00
   0.00000000   0.00000000   0.00102108          0.00      0.00    150.21


     Writing output data file config.save
 
     init_run     :     18.17s CPU     18.88s WALL (       1 calls)
     electrons    :   1330.02s CPU   1355.13s WALL (       1 calls)
     forces       :      4.37s CPU      4.87s WALL (       1 calls)
     stress       :     14.17s CPU     14.95s WALL (       1 calls)

     Called by init_run:
     wfcinit      :     13.91s CPU     14.07s WALL (       1 calls)
     potinit      :      1.54s CPU      1.57s WALL (       1 calls)

     Called by electrons:
     c_bands      :    859.70s CPU    867.27s WALL (      26 calls)
     sum_band     :    398.51s CPU    408.31s WALL (      26 calls)
     v_of_rho     :     22.38s CPU     22.57s WALL (      27 calls)
     newd         :     34.58s CPU     41.99s WALL (      27 calls)
     mix_rho      :      4.07s CPU      4.09s WALL (      26 calls)

     Called by c_bands:
     init_us_2    :      7.74s CPU      7.87s WALL (    3850 calls)
     cegterg      :    833.17s CPU    840.39s WALL (    1820 calls)

     Called by sum_band:
     sum_band:bec :      0.07s CPU      0.07s WALL (    1820 calls)
     addusdens    :    107.10s CPU    114.65s WALL (      26 calls)

     Called by *egterg:
     h_psi        :    748.62s CPU    755.11s WALL (    6276 calls)
     s_psi        :     11.20s CPU     11.34s WALL (    6276 calls)
     g_psi        :      2.03s CPU      2.05s WALL (    4386 calls)
     cdiaghg      :     18.47s CPU     18.65s WALL (    6206 calls)

     Called by h_psi:
     add_vuspsi   :     11.12s CPU     11.27s WALL (    6276 calls)

     General routines
     calbec       :     18.32s CPU     18.66s WALL (    8446 calls)
     fft          :     22.73s CPU     22.91s WALL (     871 calls)
     ffts         :      0.11s CPU      0.12s WALL (     106 calls)
     fftw         :    328.50s CPU    330.88s WALL (  436522 calls)
     interpolate  :      3.45s CPU      3.47s WALL (     106 calls)
     davcio       :      0.14s CPU      0.42s WALL (      70 calls)
 
     Parallel routines
     fft_scatter  :    183.49s CPU    185.33s WALL (  437499 calls)

     PAW routines
     PAW_pot      :     10.58s CPU     10.99s WALL (      27 calls)
     PAW_symme    :      0.04s CPU      0.04s WALL (      53 calls)
 
     PWSCF        : 22m47.53s CPU    23m15.08s WALL

 
   This run was terminated on:  21:19:35  27Oct2020            

=------------------------------------------------------------------------------=
   JOB DONE.
=------------------------------------------------------------------------------=
