
     Program PWSCF v.5.2.0 starts on 27Oct2020 at 21:21: 0 

     This program is part of the open-source Quantum ESPRESSO suite
     for quantum simulation of materials; please cite
         "P. Giannozzi et al., J. Phys.:Condens. Matter 21 395502 (2009);
          URL http://www.quantum-espresso.org", 
     in publications or presentations arising from this work. More details at
     http://www.quantum-espresso.org/quote

     Parallel version (MPI), running on     6 processors
     R & G space division:  proc/nbgrp/npool/nimage =       6
     Reading input from 19.in

     Current dimensions of program PWSCF are:
     Max number of different atomic species (ntypx) = 10
     Max number of k-points (npk) =  40000
     Max angular momentum in pseudopotentials (lmaxx) =  3

     IMPORTANT: XC functional enforced from input :
     Exchange-correlation      = PBE ( 1  4  3  4 0 0)
     Any further DFT definition will be discarded
     Please, verify this is what you really want

               file Fe_PSEUDO: wavefunction(s)  3P 3D renormalized
               file N_PSEUDO: wavefunction(s)  2S renormalized

     Subspace diagonalization in iterative solution of the eigenvalue problem:
     a serial algorithm will be used

 
     Parallelization info
     --------------------
     sticks:   dense  smooth     PW     G-vecs:    dense   smooth      PW
     Min        2062     433    120               172845    16719    2460
     Max        2063     434    121               172847    16740    2463
     Sum       12377    2601    725              1037077   100377   14771
 
     Generating pointlists ...
     new r_m :   0.2063 (alat units)  1.4318 (a.u.) for type    1
     new r_m :   0.2063 (alat units)  1.4318 (a.u.) for type    2


     bravais-lattice index     =            0
     lattice parameter (alat)  =       6.9422  a.u.
     unit-cell volume          =     334.5777 (a.u.)^3
     number of atoms/cell      =            5
     number of atomic types    =            2
     number of electrons       =        69.00
     number of Kohn-Sham states=           42
     kinetic-energy cutoff     =     170.0000  Ry
     charge density cutoff     =    3230.0000  Ry
     convergence threshold     =      1.0E-08
     mixing beta               =       0.7000
     number of iterations used =            8  plain     mixing
     Exchange-correlation      = PBE ( 1  4  3  4 0 0)

     celldm(1)=   6.942230  celldm(2)=   0.000000  celldm(3)=   0.000000
     celldm(4)=   0.000000  celldm(5)=   0.000000  celldm(6)=   0.000000

     crystal axes: (cart. coord. in units of alat)
               a(1) = (   1.000000   0.000000   0.000000 )  
               a(2) = (   0.000000   1.000000   0.000000 )  
               a(3) = (   0.000000   0.000000   1.000000 )  

     reciprocal axes: (cart. coord. in units 2 pi/alat)
               b(1) = (  1.000000  0.000000  0.000000 )  
               b(2) = (  0.000000  1.000000  0.000000 )  
               b(3) = (  0.000000  0.000000  1.000000 )  


     PseudoPot. # 1 for Fe read from file:
     pseudo/Fe_PSEUDO
     MD5 check sum: e30d5f36a6f0cb983ee41abee56170da
     Pseudo is Projector augmented-wave + core cor, Zval = 16.0
     Generated using "atomic" code by A. Dal Corso  v.6.3
     Shape of augmentation charge: PSQ
     Using radial grid of 1191 points,  6 beta functions with: 
                l(1) =   0
                l(2) =   0
                l(3) =   1
                l(4) =   1
                l(5) =   2
                l(6) =   2
     Q(r) pseudized with 0 coefficients 


     PseudoPot. # 2 for  N read from file:
     pseudo/N_PSEUDO
     MD5 check sum: 14c48229446f9f2d411169a3abcbc3fa
     Pseudo is Projector augmented-wave + core cor, Zval =  5.0
     Generated using "atomic" code by A. Dal Corso  v.6.3
     Shape of augmentation charge: PSQ
     Using radial grid of 1085 points,  4 beta functions with: 
                l(1) =   0
                l(2) =   0
                l(3) =   1
                l(4) =   1
     Q(r) pseudized with 0 coefficients 


     atomic species   valence    mass     pseudopotential
        Fe            16.00    55.84500     Fe( 1.00)
        N              5.00    14.00650      N( 1.00)

     Starting magnetic structure 
     atomic species   magnetization
        Fe           0.500
        N           -0.010

     48 Sym. Ops., with inversion, found



   Cartesian axes

     site n.     atom                  positions (alat units)
         1           Fe  tau(   1) = (   0.0000000   0.5000000   0.5000000  )
         2           Fe  tau(   2) = (   0.5000000   0.5000000   0.0000000  )
         3           Fe  tau(   3) = (   0.5000000   0.0000000   0.5000000  )
         4           Fe  tau(   4) = (   0.0000000   0.0000000   0.0000000  )
         5           N   tau(   5) = (   0.5000000   0.5000000   0.5000000  )

     number of k points=    70  Marzari-Vanderbilt smearing, width (Ry)=  0.0050
                       cart. coord. in units 2pi/alat
        k(    1) = (   0.0000000   0.0000000   0.0000000), wk =   0.0013717
        k(    2) = (   0.0000000   0.0000000   0.1111111), wk =   0.0082305
        k(    3) = (   0.0000000   0.0000000   0.2222222), wk =   0.0082305
        k(    4) = (   0.0000000   0.0000000   0.3333333), wk =   0.0082305
        k(    5) = (   0.0000000   0.0000000   0.4444444), wk =   0.0082305
        k(    6) = (   0.0000000   0.1111111   0.1111111), wk =   0.0164609
        k(    7) = (   0.0000000   0.1111111   0.2222222), wk =   0.0329218
        k(    8) = (   0.0000000   0.1111111   0.3333333), wk =   0.0329218
        k(    9) = (   0.0000000   0.1111111   0.4444444), wk =   0.0329218
        k(   10) = (   0.0000000   0.2222222   0.2222222), wk =   0.0164609
        k(   11) = (   0.0000000   0.2222222   0.3333333), wk =   0.0329218
        k(   12) = (   0.0000000   0.2222222   0.4444444), wk =   0.0329218
        k(   13) = (   0.0000000   0.3333333   0.3333333), wk =   0.0164609
        k(   14) = (   0.0000000   0.3333333   0.4444444), wk =   0.0329218
        k(   15) = (   0.0000000   0.4444444   0.4444444), wk =   0.0164609
        k(   16) = (   0.1111111   0.1111111   0.1111111), wk =   0.0109739
        k(   17) = (   0.1111111   0.1111111   0.2222222), wk =   0.0329218
        k(   18) = (   0.1111111   0.1111111   0.3333333), wk =   0.0329218
        k(   19) = (   0.1111111   0.1111111   0.4444444), wk =   0.0329218
        k(   20) = (   0.1111111   0.2222222   0.2222222), wk =   0.0329218
        k(   21) = (   0.1111111   0.2222222   0.3333333), wk =   0.0658436
        k(   22) = (   0.1111111   0.2222222   0.4444444), wk =   0.0658436
        k(   23) = (   0.1111111   0.3333333   0.3333333), wk =   0.0329218
        k(   24) = (   0.1111111   0.3333333   0.4444444), wk =   0.0658436
        k(   25) = (   0.1111111   0.4444444   0.4444444), wk =   0.0329218
        k(   26) = (   0.2222222   0.2222222   0.2222222), wk =   0.0109739
        k(   27) = (   0.2222222   0.2222222   0.3333333), wk =   0.0329218
        k(   28) = (   0.2222222   0.2222222   0.4444444), wk =   0.0329218
        k(   29) = (   0.2222222   0.3333333   0.3333333), wk =   0.0329218
        k(   30) = (   0.2222222   0.3333333   0.4444444), wk =   0.0658436
        k(   31) = (   0.2222222   0.4444444   0.4444444), wk =   0.0329218
        k(   32) = (   0.3333333   0.3333333   0.3333333), wk =   0.0109739
        k(   33) = (   0.3333333   0.3333333   0.4444444), wk =   0.0329218
        k(   34) = (   0.3333333   0.4444444   0.4444444), wk =   0.0329218
        k(   35) = (   0.4444444   0.4444444   0.4444444), wk =   0.0109739
        k(   36) = (   0.0000000   0.0000000   0.0000000), wk =   0.0013717
        k(   37) = (   0.0000000   0.0000000   0.1111111), wk =   0.0082305
        k(   38) = (   0.0000000   0.0000000   0.2222222), wk =   0.0082305
        k(   39) = (   0.0000000   0.0000000   0.3333333), wk =   0.0082305
        k(   40) = (   0.0000000   0.0000000   0.4444444), wk =   0.0082305
        k(   41) = (   0.0000000   0.1111111   0.1111111), wk =   0.0164609
        k(   42) = (   0.0000000   0.1111111   0.2222222), wk =   0.0329218
        k(   43) = (   0.0000000   0.1111111   0.3333333), wk =   0.0329218
        k(   44) = (   0.0000000   0.1111111   0.4444444), wk =   0.0329218
        k(   45) = (   0.0000000   0.2222222   0.2222222), wk =   0.0164609
        k(   46) = (   0.0000000   0.2222222   0.3333333), wk =   0.0329218
        k(   47) = (   0.0000000   0.2222222   0.4444444), wk =   0.0329218
        k(   48) = (   0.0000000   0.3333333   0.3333333), wk =   0.0164609
        k(   49) = (   0.0000000   0.3333333   0.4444444), wk =   0.0329218
        k(   50) = (   0.0000000   0.4444444   0.4444444), wk =   0.0164609
        k(   51) = (   0.1111111   0.1111111   0.1111111), wk =   0.0109739
        k(   52) = (   0.1111111   0.1111111   0.2222222), wk =   0.0329218
        k(   53) = (   0.1111111   0.1111111   0.3333333), wk =   0.0329218
        k(   54) = (   0.1111111   0.1111111   0.4444444), wk =   0.0329218
        k(   55) = (   0.1111111   0.2222222   0.2222222), wk =   0.0329218
        k(   56) = (   0.1111111   0.2222222   0.3333333), wk =   0.0658436
        k(   57) = (   0.1111111   0.2222222   0.4444444), wk =   0.0658436
        k(   58) = (   0.1111111   0.3333333   0.3333333), wk =   0.0329218
        k(   59) = (   0.1111111   0.3333333   0.4444444), wk =   0.0658436
        k(   60) = (   0.1111111   0.4444444   0.4444444), wk =   0.0329218
        k(   61) = (   0.2222222   0.2222222   0.2222222), wk =   0.0109739
        k(   62) = (   0.2222222   0.2222222   0.3333333), wk =   0.0329218
        k(   63) = (   0.2222222   0.2222222   0.4444444), wk =   0.0329218
        k(   64) = (   0.2222222   0.3333333   0.3333333), wk =   0.0329218
        k(   65) = (   0.2222222   0.3333333   0.4444444), wk =   0.0658436
        k(   66) = (   0.2222222   0.4444444   0.4444444), wk =   0.0329218
        k(   67) = (   0.3333333   0.3333333   0.3333333), wk =   0.0109739
        k(   68) = (   0.3333333   0.3333333   0.4444444), wk =   0.0329218
        k(   69) = (   0.3333333   0.4444444   0.4444444), wk =   0.0329218
        k(   70) = (   0.4444444   0.4444444   0.4444444), wk =   0.0109739

     Dense  grid:  1037077 G-vectors     FFT dimensions: ( 125, 125, 125)

     Smooth grid:   100377 G-vectors     FFT dimensions: (  60,  60,  60)

     Largest allocated arrays     est. size (Mb)     dimensions
        Kohn-Sham Wavefunctions         1.36 Mb     (    2129,   42)
        NL pseudopotentials             2.60 Mb     (    2129,   80)
        Each V/rho on FFT grid         10.01 Mb     (  328125,   2)
        Each G-vector array             1.32 Mb     (  172847)
        G-vector shells                 0.03 Mb     (    3283)
     Largest temporary arrays     est. size (Mb)     dimensions
        Auxiliary wavefunctions         5.46 Mb     (    2129,  168)
        Each subspace H/S matrix        0.43 Mb     (     168,  168)
        Each <psi_i|beta_j> matrix      0.05 Mb     (      80,   42)
        Arrays for rho mixing          40.05 Mb     (  328125,    8)

     Initial potential from superposition of free atoms

     starting charge   68.99837, renormalised to   69.00000
     Starting wfc are   44 randomized atomic wfcs
     Checking if some PAW data can be deallocated... 

     total cpu time spent up to now is       20.0 secs

     per-process dynamical memory:   222.8 Mb

     Self-consistent Calculation

     iteration #  1     ecut=   170.00 Ry     beta=0.70
     Davidson diagonalization with overlap
     ethr =  1.00E-02,  avg # of iterations =  3.1

     negative rho (up, down):  0.000E+00 4.317E-04
 
     Magnetic moment per site:
     atom:    1    charge:   12.7391    magn:    4.0954    constr:    0.0000
     atom:    2    charge:   12.7391    magn:    4.0954    constr:    0.0000
     atom:    3    charge:   12.7391    magn:    4.0954    constr:    0.0000
     atom:    4    charge:   12.6158    magn:    4.1692    constr:    0.0000
     atom:    5    charge:    4.6382    magn:    0.1186    constr:    0.0000

     total cpu time spent up to now is       75.7 secs

     total energy              =   -1344.14081760 Ry
     Harris-Foulkes estimate   =   -1343.41386089 Ry
     estimated scf accuracy    <       2.87128215 Ry

     total magnetization       =    13.87 Bohr mag/cell
     absolute magnetization    =    14.05 Bohr mag/cell

     iteration #  2     ecut=   170.00 Ry     beta=0.70
     Davidson diagonalization with overlap
     ethr =  4.16E-03,  avg # of iterations =  3.3

     negative rho (up, down):  0.000E+00 3.902E-04
 
     Magnetic moment per site:
     atom:    1    charge:   12.7251    magn:    3.8183    constr:    0.0000
     atom:    2    charge:   12.7251    magn:    3.8183    constr:    0.0000
     atom:    3    charge:   12.7251    magn:    3.8183    constr:    0.0000
     atom:    4    charge:   13.0675    magn:    3.5734    constr:    0.0000
     atom:    5    charge:    4.2318    magn:    0.0577    constr:    0.0000

     total cpu time spent up to now is      131.0 secs

     total energy              =   -1343.28629990 Ry
     Harris-Foulkes estimate   =   -1345.76276656 Ry
     estimated scf accuracy    <       8.66612445 Ry

     total magnetization       =     9.38 Bohr mag/cell
     absolute magnetization    =    10.50 Bohr mag/cell

     iteration #  3     ecut=   170.00 Ry     beta=0.70
     Davidson diagonalization with overlap
     ethr =  4.16E-03,  avg # of iterations =  3.5

     negative rho (up, down):  0.000E+00 1.933E-04
 
     Magnetic moment per site:
     atom:    1    charge:   12.8860    magn:    3.4440    constr:    0.0000
     atom:    2    charge:   12.8860    magn:    3.4440    constr:    0.0000
     atom:    3    charge:   12.8860    magn:    3.4440    constr:    0.0000
     atom:    4    charge:   12.8133    magn:    3.0100    constr:    0.0000
     atom:    5    charge:    4.0300    magn:    0.0240    constr:    0.0000

     total cpu time spent up to now is      187.0 secs

     total energy              =   -1343.62180351 Ry
     Harris-Foulkes estimate   =   -1346.19091874 Ry
     estimated scf accuracy    <      25.48566839 Ry

     total magnetization       =     3.81 Bohr mag/cell
     absolute magnetization    =     4.51 Bohr mag/cell

     iteration #  4     ecut=   170.00 Ry     beta=0.70
     Davidson diagonalization with overlap
     ethr =  4.16E-03,  avg # of iterations =  3.2

     negative rho (up, down):  0.000E+00 6.106E-04
 
     Magnetic moment per site:
     atom:    1    charge:   12.7716    magn:    2.2692    constr:    0.0000
     atom:    2    charge:   12.7716    magn:    2.2692    constr:    0.0000
     atom:    3    charge:   12.7716    magn:    2.2692    constr:    0.0000
     atom:    4    charge:   12.7257    magn:    1.8783    constr:    0.0000
     atom:    5    charge:    4.0544    magn:   -0.0477    constr:    0.0000

     total cpu time spent up to now is      241.3 secs

     total energy              =   -1345.02694339 Ry
     Harris-Foulkes estimate   =   -1345.10848211 Ry
     estimated scf accuracy    <       0.54974347 Ry

     total magnetization       =    10.75 Bohr mag/cell
     absolute magnetization    =    11.16 Bohr mag/cell

     iteration #  5     ecut=   170.00 Ry     beta=0.70
     Davidson diagonalization with overlap
     ethr =  7.97E-04,  avg # of iterations =  3.3

     negative rho (up, down):  0.000E+00 3.944E-04
 
     Magnetic moment per site:
     atom:    1    charge:   12.8326    magn:    2.1641    constr:    0.0000
     atom:    2    charge:   12.8326    magn:    2.1641    constr:    0.0000
     atom:    3    charge:   12.8326    magn:    2.1641    constr:    0.0000
     atom:    4    charge:   12.8034    magn:    2.0366    constr:    0.0000
     atom:    5    charge:    4.1096    magn:   -0.0264    constr:    0.0000

     total cpu time spent up to now is      298.8 secs

     total energy              =   -1345.11269860 Ry
     Harris-Foulkes estimate   =   -1345.20563746 Ry
     estimated scf accuracy    <       0.25535494 Ry

     total magnetization       =     9.60 Bohr mag/cell
     absolute magnetization    =     9.96 Bohr mag/cell

     iteration #  6     ecut=   170.00 Ry     beta=0.70
     Davidson diagonalization with overlap
     ethr =  3.70E-04,  avg # of iterations =  3.0

     negative rho (up, down):  0.000E+00 3.121E-04
 
     Magnetic moment per site:
     atom:    1    charge:   12.8271    magn:    2.1148    constr:    0.0000
     atom:    2    charge:   12.8271    magn:    2.1148    constr:    0.0000
     atom:    3    charge:   12.8271    magn:    2.1148    constr:    0.0000
     atom:    4    charge:   12.7932    magn:    2.3685    constr:    0.0000
     atom:    5    charge:    4.1122    magn:    0.0069    constr:    0.0000

     total cpu time spent up to now is      353.9 secs

     total energy              =   -1345.16185084 Ry
     Harris-Foulkes estimate   =   -1345.15743540 Ry
     estimated scf accuracy    <       0.02571786 Ry

     total magnetization       =     9.38 Bohr mag/cell
     absolute magnetization    =     9.72 Bohr mag/cell

     iteration #  7     ecut=   170.00 Ry     beta=0.70
     Davidson diagonalization with overlap
     ethr =  3.73E-05,  avg # of iterations =  1.7

     negative rho (up, down):  0.000E+00 3.237E-04
 
     Magnetic moment per site:
     atom:    1    charge:   12.8280    magn:    1.9555    constr:    0.0000
     atom:    2    charge:   12.8280    magn:    1.9555    constr:    0.0000
     atom:    3    charge:   12.8280    magn:    1.9555    constr:    0.0000
     atom:    4    charge:   12.7729    magn:    2.8122    constr:    0.0000
     atom:    5    charge:    4.1112    magn:    0.0391    constr:    0.0000

     total cpu time spent up to now is      402.8 secs

     total energy              =   -1345.16174106 Ry
     Harris-Foulkes estimate   =   -1345.16363991 Ry
     estimated scf accuracy    <       0.01795457 Ry

     total magnetization       =     9.38 Bohr mag/cell
     absolute magnetization    =     9.71 Bohr mag/cell

     iteration #  8     ecut=   170.00 Ry     beta=0.70
     Davidson diagonalization with overlap
     ethr =  2.60E-05,  avg # of iterations =  2.2

     negative rho (up, down):  0.000E+00 3.082E-04
 
     Magnetic moment per site:
     atom:    1    charge:   12.8309    magn:    1.8615    constr:    0.0000
     atom:    2    charge:   12.8309    magn:    1.8615    constr:    0.0000
     atom:    3    charge:   12.8309    magn:    1.8615    constr:    0.0000
     atom:    4    charge:   12.7753    magn:    2.7240    constr:    0.0000
     atom:    5    charge:    4.1092    magn:    0.0308    constr:    0.0000

     total cpu time spent up to now is      454.8 secs

     total energy              =   -1345.16681758 Ry
     Harris-Foulkes estimate   =   -1345.16581992 Ry
     estimated scf accuracy    <       0.00208334 Ry

     total magnetization       =     9.00 Bohr mag/cell
     absolute magnetization    =     9.35 Bohr mag/cell

     iteration #  9     ecut=   170.00 Ry     beta=0.70
     Davidson diagonalization with overlap
     ethr =  3.02E-06,  avg # of iterations =  2.0

     negative rho (up, down):  0.000E+00 3.608E-04
 
     Magnetic moment per site:
     atom:    1    charge:   12.8288    magn:    1.9972    constr:    0.0000
     atom:    2    charge:   12.8288    magn:    1.9972    constr:    0.0000
     atom:    3    charge:   12.8288    magn:    1.9972    constr:    0.0000
     atom:    4    charge:   12.7743    magn:    2.7556    constr:    0.0000
     atom:    5    charge:    4.1141    magn:    0.0386    constr:    0.0000

     total cpu time spent up to now is      503.7 secs

     total energy              =   -1345.16415800 Ry
     Harris-Foulkes estimate   =   -1345.16763460 Ry
     estimated scf accuracy    <       0.00200779 Ry

     total magnetization       =     8.58 Bohr mag/cell
     absolute magnetization    =     8.96 Bohr mag/cell

     iteration # 10     ecut=   170.00 Ry     beta=0.70
     Davidson diagonalization with overlap
     ethr =  2.91E-06,  avg # of iterations =  2.0

     negative rho (up, down):  0.000E+00 4.193E-04
 
     Magnetic moment per site:
     atom:    1    charge:   12.8274    magn:    2.0763    constr:    0.0000
     atom:    2    charge:   12.8274    magn:    2.0763    constr:    0.0000
     atom:    3    charge:   12.8274    magn:    2.0763    constr:    0.0000
     atom:    4    charge:   12.7752    magn:    2.7418    constr:    0.0000
     atom:    5    charge:    4.1174    magn:    0.0449    constr:    0.0000

     total cpu time spent up to now is      552.9 secs

     total energy              =   -1345.16412901 Ry
     Harris-Foulkes estimate   =   -1345.16566560 Ry
     estimated scf accuracy    <       0.00219530 Ry

     total magnetization       =     9.10 Bohr mag/cell
     absolute magnetization    =     9.44 Bohr mag/cell

     iteration # 11     ecut=   170.00 Ry     beta=0.70
     Davidson diagonalization with overlap
     ethr =  2.91E-06,  avg # of iterations =  1.5

     negative rho (up, down):  0.000E+00 2.511E-04
 
     Magnetic moment per site:
     atom:    1    charge:   12.8338    magn:    1.7365    constr:    0.0000
     atom:    2    charge:   12.8338    magn:    1.7365    constr:    0.0000
     atom:    3    charge:   12.8338    magn:    1.7365    constr:    0.0000
     atom:    4    charge:   12.7752    magn:    2.6946    constr:    0.0000
     atom:    5    charge:    4.1048    magn:    0.0147    constr:    0.0000

     total cpu time spent up to now is      601.3 secs

     total energy              =   -1345.16121124 Ry
     Harris-Foulkes estimate   =   -1345.16456324 Ry
     estimated scf accuracy    <       0.00280289 Ry

     total magnetization       =     9.32 Bohr mag/cell
     absolute magnetization    =     9.66 Bohr mag/cell

     iteration # 12     ecut=   170.00 Ry     beta=0.70
     Davidson diagonalization with overlap
     ethr =  2.91E-06,  avg # of iterations =  3.0

     negative rho (up, down):  0.000E+00 1.924E-04
 
     Magnetic moment per site:
     atom:    1    charge:   12.8422    magn:    1.2634    constr:    0.0000
     atom:    2    charge:   12.8422    magn:    1.2634    constr:    0.0000
     atom:    3    charge:   12.8422    magn:    1.2634    constr:    0.0000
     atom:    4    charge:   12.7741    magn:    2.6493    constr:    0.0000
     atom:    5    charge:    4.0860    magn:   -0.0282    constr:    0.0000

     total cpu time spent up to now is      658.9 secs

     total energy              =   -1345.15755046 Ry
     Harris-Foulkes estimate   =   -1345.16963287 Ry
     estimated scf accuracy    <       0.00140275 Ry

     total magnetization       =     8.22 Bohr mag/cell
     absolute magnetization    =     8.60 Bohr mag/cell

     iteration # 13     ecut=   170.00 Ry     beta=0.70
     Davidson diagonalization with overlap
     ethr =  2.03E-06,  avg # of iterations =  3.4

     negative rho (up, down):  0.000E+00 1.897E-04
 
     Magnetic moment per site:
     atom:    1    charge:   12.8443    magn:    1.1577    constr:    0.0000
     atom:    2    charge:   12.8443    magn:    1.1577    constr:    0.0000
     atom:    3    charge:   12.8443    magn:    1.1577    constr:    0.0000
     atom:    4    charge:   12.7740    magn:    2.6459    constr:    0.0000
     atom:    5    charge:    4.0815    magn:   -0.0386    constr:    0.0000

     total cpu time spent up to now is      726.4 secs

     total energy              =   -1345.16842938 Ry
     Harris-Foulkes estimate   =   -1345.17008754 Ry
     estimated scf accuracy    <       0.00083945 Ry

     total magnetization       =     7.10 Bohr mag/cell
     absolute magnetization    =     7.47 Bohr mag/cell

     iteration # 14     ecut=   170.00 Ry     beta=0.70
     Davidson diagonalization with overlap
     ethr =  1.22E-06,  avg # of iterations =  2.2

     negative rho (up, down):  0.000E+00 1.926E-04
 
     Magnetic moment per site:
     atom:    1    charge:   12.8436    magn:    1.2090    constr:    0.0000
     atom:    2    charge:   12.8436    magn:    1.2090    constr:    0.0000
     atom:    3    charge:   12.8436    magn:    1.2090    constr:    0.0000
     atom:    4    charge:   12.7741    magn:    2.6524    constr:    0.0000
     atom:    5    charge:    4.0828    magn:   -0.0351    constr:    0.0000

     total cpu time spent up to now is      777.9 secs

     total energy              =   -1345.16952005 Ry
     Harris-Foulkes estimate   =   -1345.16911507 Ry
     estimated scf accuracy    <       0.00187533 Ry

     total magnetization       =     6.85 Bohr mag/cell
     absolute magnetization    =     7.21 Bohr mag/cell

     iteration # 15     ecut=   170.00 Ry     beta=0.70
     Davidson diagonalization with overlap
     ethr =  1.22E-06,  avg # of iterations =  1.1

     negative rho (up, down):  0.000E+00 1.927E-04
 
     Magnetic moment per site:
     atom:    1    charge:   12.8445    magn:    1.1699    constr:    0.0000
     atom:    2    charge:   12.8445    magn:    1.1699    constr:    0.0000
     atom:    3    charge:   12.8445    magn:    1.1699    constr:    0.0000
     atom:    4    charge:   12.7743    magn:    2.6560    constr:    0.0000
     atom:    5    charge:    4.0811    magn:   -0.0395    constr:    0.0000

     total cpu time spent up to now is      825.7 secs

     total energy              =   -1345.16927061 Ry
     Harris-Foulkes estimate   =   -1345.16968278 Ry
     estimated scf accuracy    <       0.00136082 Ry

     total magnetization       =     6.97 Bohr mag/cell
     absolute magnetization    =     7.34 Bohr mag/cell

     iteration # 16     ecut=   170.00 Ry     beta=0.70
     Davidson diagonalization with overlap
     ethr =  1.22E-06,  avg # of iterations =  1.0

     negative rho (up, down):  0.000E+00 2.100E-04
 
     Magnetic moment per site:
     atom:    1    charge:   12.8428    magn:    1.2939    constr:    0.0000
     atom:    2    charge:   12.8428    magn:    1.2939    constr:    0.0000
     atom:    3    charge:   12.8428    magn:    1.2939    constr:    0.0000
     atom:    4    charge:   12.7744    magn:    2.6894    constr:    0.0000
     atom:    5    charge:    4.0830    magn:   -0.0359    constr:    0.0000

     total cpu time spent up to now is      873.4 secs

     total energy              =   -1345.16947871 Ry
     Harris-Foulkes estimate   =   -1345.16936058 Ry
     estimated scf accuracy    <       0.00185844 Ry

     total magnetization       =     6.89 Bohr mag/cell
     absolute magnetization    =     7.25 Bohr mag/cell

     iteration # 17     ecut=   170.00 Ry     beta=0.70
     Davidson diagonalization with overlap
     ethr =  1.22E-06,  avg # of iterations =  2.6

     negative rho (up, down):  0.000E+00 2.111E-04
 
     Magnetic moment per site:
     atom:    1    charge:   12.8397    magn:    1.4602    constr:    0.0000
     atom:    2    charge:   12.8397    magn:    1.4602    constr:    0.0000
     atom:    3    charge:   12.8397    magn:    1.4602    constr:    0.0000
     atom:    4    charge:   12.7745    magn:    2.6898    constr:    0.0000
     atom:    5    charge:    4.0894    magn:   -0.0227    constr:    0.0000

     total cpu time spent up to now is      925.2 secs

     total energy              =   -1345.16924119 Ry
     Harris-Foulkes estimate   =   -1345.17056320 Ry
     estimated scf accuracy    <       0.00132661 Ry

     total magnetization       =     7.22 Bohr mag/cell
     absolute magnetization    =     7.58 Bohr mag/cell

     iteration # 18     ecut=   170.00 Ry     beta=0.70
     Davidson diagonalization with overlap
     ethr =  1.22E-06,  avg # of iterations =  3.0

     negative rho (up, down):  0.000E+00 2.111E-04
 
     Magnetic moment per site:
     atom:    1    charge:   12.8400    magn:    1.4401    constr:    0.0000
     atom:    2    charge:   12.8400    magn:    1.4401    constr:    0.0000
     atom:    3    charge:   12.8400    magn:    1.4401    constr:    0.0000
     atom:    4    charge:   12.7743    magn:    2.6885    constr:    0.0000
     atom:    5    charge:    4.0890    magn:   -0.0226    constr:    0.0000

     total cpu time spent up to now is      981.2 secs

     total energy              =   -1345.17088447 Ry
     Harris-Foulkes estimate   =   -1345.17091203 Ry
     estimated scf accuracy    <       0.00102225 Ry

     total magnetization       =     7.64 Bohr mag/cell
     absolute magnetization    =     7.99 Bohr mag/cell

     iteration # 19     ecut=   170.00 Ry     beta=0.70
     Davidson diagonalization with overlap
     ethr =  1.22E-06,  avg # of iterations =  1.0

     negative rho (up, down):  0.000E+00 2.121E-04
 
     Magnetic moment per site:
     atom:    1    charge:   12.8393    magn:    1.4678    constr:    0.0000
     atom:    2    charge:   12.8393    magn:    1.4678    constr:    0.0000
     atom:    3    charge:   12.8393    magn:    1.4678    constr:    0.0000
     atom:    4    charge:   12.7742    magn:    2.6898    constr:    0.0000
     atom:    5    charge:    4.0900    magn:   -0.0204    constr:    0.0000

     total cpu time spent up to now is     1028.8 secs

     total energy              =   -1345.17084492 Ry
     Harris-Foulkes estimate   =   -1345.17091126 Ry
     estimated scf accuracy    <       0.00076237 Ry

     total magnetization       =     7.58 Bohr mag/cell
     absolute magnetization    =     7.93 Bohr mag/cell

     iteration # 20     ecut=   170.00 Ry     beta=0.70
     Davidson diagonalization with overlap
     ethr =  1.10E-06,  avg # of iterations =  1.0

     negative rho (up, down):  0.000E+00 2.066E-04
 
     Magnetic moment per site:
     atom:    1    charge:   12.8387    magn:    1.4638    constr:    0.0000
     atom:    2    charge:   12.8387    magn:    1.4638    constr:    0.0000
     atom:    3    charge:   12.8387    magn:    1.4638    constr:    0.0000
     atom:    4    charge:   12.7739    magn:    2.6794    constr:    0.0000
     atom:    5    charge:    4.0911    magn:   -0.0156    constr:    0.0000

     total cpu time spent up to now is     1076.3 secs

     total energy              =   -1345.17089898 Ry
     Harris-Foulkes estimate   =   -1345.17089398 Ry
     estimated scf accuracy    <       0.00088429 Ry

     total magnetization       =     7.66 Bohr mag/cell
     absolute magnetization    =     8.00 Bohr mag/cell

     iteration # 21     ecut=   170.00 Ry     beta=0.70
     Davidson diagonalization with overlap
     ethr =  1.10E-06,  avg # of iterations =  1.0

     negative rho (up, down):  0.000E+00 1.979E-04
 
     Magnetic moment per site:
     atom:    1    charge:   12.8377    magn:    1.4719    constr:    0.0000
     atom:    2    charge:   12.8377    magn:    1.4719    constr:    0.0000
     atom:    3    charge:   12.8377    magn:    1.4719    constr:    0.0000
     atom:    4    charge:   12.7734    magn:    2.6646    constr:    0.0000
     atom:    5    charge:    4.0935    magn:   -0.0076    constr:    0.0000

     total cpu time spent up to now is     1124.0 secs

     total energy              =   -1345.17088186 Ry
     Harris-Foulkes estimate   =   -1345.17091440 Ry
     estimated scf accuracy    <       0.00041998 Ry

     total magnetization       =     7.64 Bohr mag/cell
     absolute magnetization    =     7.99 Bohr mag/cell

     iteration # 22     ecut=   170.00 Ry     beta=0.70
     Davidson diagonalization with overlap
     ethr =  6.09E-07,  avg # of iterations =  1.7

     negative rho (up, down):  0.000E+00 1.945E-04
 
     Magnetic moment per site:
     atom:    1    charge:   12.8374    magn:    1.4801    constr:    0.0000
     atom:    2    charge:   12.8374    magn:    1.4801    constr:    0.0000
     atom:    3    charge:   12.8374    magn:    1.4801    constr:    0.0000
     atom:    4    charge:   12.7736    magn:    2.6570    constr:    0.0000
     atom:    5    charge:    4.0943    magn:   -0.0048    constr:    0.0000

     total cpu time spent up to now is     1172.3 secs

     total energy              =   -1345.17092098 Ry
     Harris-Foulkes estimate   =   -1345.17092499 Ry
     estimated scf accuracy    <       0.00002522 Ry

     total magnetization       =     7.65 Bohr mag/cell
     absolute magnetization    =     8.00 Bohr mag/cell

     iteration # 23     ecut=   170.00 Ry     beta=0.70
     Davidson diagonalization with overlap
     ethr =  3.65E-08,  avg # of iterations =  2.8

     negative rho (up, down):  0.000E+00 1.943E-04
 
     Magnetic moment per site:
     atom:    1    charge:   12.8374    magn:    1.4821    constr:    0.0000
     atom:    2    charge:   12.8374    magn:    1.4821    constr:    0.0000
     atom:    3    charge:   12.8374    magn:    1.4821    constr:    0.0000
     atom:    4    charge:   12.7737    magn:    2.6565    constr:    0.0000
     atom:    5    charge:    4.0945    magn:   -0.0050    constr:    0.0000

     total cpu time spent up to now is     1225.1 secs

     total energy              =   -1345.17093241 Ry
     Harris-Foulkes estimate   =   -1345.17093259 Ry
     estimated scf accuracy    <       0.00000371 Ry

     total magnetization       =     7.66 Bohr mag/cell
     absolute magnetization    =     8.01 Bohr mag/cell

     iteration # 24     ecut=   170.00 Ry     beta=0.70
     Davidson diagonalization with overlap
     ethr =  5.38E-09,  avg # of iterations =  1.8

     negative rho (up, down):  0.000E+00 1.937E-04
 
     Magnetic moment per site:
     atom:    1    charge:   12.8373    magn:    1.4855    constr:    0.0000
     atom:    2    charge:   12.8373    magn:    1.4855    constr:    0.0000
     atom:    3    charge:   12.8373    magn:    1.4855    constr:    0.0000
     atom:    4    charge:   12.7738    magn:    2.6541    constr:    0.0000
     atom:    5    charge:    4.0947    magn:   -0.0040    constr:    0.0000

     total cpu time spent up to now is     1273.9 secs

     total energy              =   -1345.17093259 Ry
     Harris-Foulkes estimate   =   -1345.17093304 Ry
     estimated scf accuracy    <       0.00000119 Ry

     total magnetization       =     7.67 Bohr mag/cell
     absolute magnetization    =     8.02 Bohr mag/cell

     iteration # 25     ecut=   170.00 Ry     beta=0.70
     Davidson diagonalization with overlap
     ethr =  1.72E-09,  avg # of iterations =  2.5

     negative rho (up, down):  0.000E+00 1.935E-04
 
     Magnetic moment per site:
     atom:    1    charge:   12.8373    magn:    1.4869    constr:    0.0000
     atom:    2    charge:   12.8373    magn:    1.4869    constr:    0.0000
     atom:    3    charge:   12.8373    magn:    1.4869    constr:    0.0000
     atom:    4    charge:   12.7739    magn:    2.6537    constr:    0.0000
     atom:    5    charge:    4.0948    magn:   -0.0038    constr:    0.0000

     total cpu time spent up to now is     1326.8 secs

     total energy              =   -1345.17093359 Ry
     Harris-Foulkes estimate   =   -1345.17093370 Ry
     estimated scf accuracy    <       0.00000013 Ry

     total magnetization       =     7.68 Bohr mag/cell
     absolute magnetization    =     8.03 Bohr mag/cell

     iteration # 26     ecut=   170.00 Ry     beta=0.70
     Davidson diagonalization with overlap
     ethr =  1.81E-10,  avg # of iterations =  3.1

     negative rho (up, down):  0.000E+00 1.935E-04
 
     Magnetic moment per site:
     atom:    1    charge:   12.8373    magn:    1.4873    constr:    0.0000
     atom:    2    charge:   12.8373    magn:    1.4873    constr:    0.0000
     atom:    3    charge:   12.8373    magn:    1.4873    constr:    0.0000
     atom:    4    charge:   12.7738    magn:    2.6537    constr:    0.0000
     atom:    5    charge:    4.0948    magn:   -0.0037    constr:    0.0000

     total cpu time spent up to now is     1383.4 secs

     total energy              =   -1345.17093375 Ry
     Harris-Foulkes estimate   =   -1345.17093375 Ry
     estimated scf accuracy    <       0.00000001 Ry

     total magnetization       =     7.68 Bohr mag/cell
     absolute magnetization    =     8.03 Bohr mag/cell

     iteration # 27     ecut=   170.00 Ry     beta=0.70
     Davidson diagonalization with overlap
     ethr =  1.92E-11,  avg # of iterations =  2.7

     negative rho (up, down):  0.000E+00 1.935E-04
 
     Magnetic moment per site:
     atom:    1    charge:   12.8373    magn:    1.4874    constr:    0.0000
     atom:    2    charge:   12.8373    magn:    1.4874    constr:    0.0000
     atom:    3    charge:   12.8373    magn:    1.4874    constr:    0.0000
     atom:    4    charge:   12.7738    magn:    2.6538    constr:    0.0000
     atom:    5    charge:    4.0948    magn:   -0.0037    constr:    0.0000

     total cpu time spent up to now is     1437.2 secs

     End of self-consistent calculation

 ------ SPIN UP ------------


          k = 0.0000 0.0000 0.0000 ( 12533 PWs)   bands (ev):

   -69.9377 -69.2601 -69.2057 -69.2057 -35.9986 -35.9986 -35.9986 -35.6162
   -35.6162 -35.6162 -35.1590 -35.1590 -35.1590 -35.1524 -35.1524 -35.1524
     0.3455  11.4280  13.3303  13.3303  13.3303  13.8395  13.8395  14.1049
    14.1049  14.1049  16.0921  16.0921  16.0921  17.1983  17.1983  17.8460
    17.8460  18.3982  18.3982  18.3982  18.4659  18.4659  18.4659  18.4674
    21.8873  23.7552

          k = 0.0000 0.0000 0.1111 ( 12537 PWs)   bands (ev):

   -69.9376 -69.2587 -69.2072 -69.2057 -35.9976 -35.9976 -35.9972 -35.6151
   -35.6151 -35.6140 -35.1600 -35.1600 -35.1593 -35.1572 -35.1536 -35.1536
     0.4152  11.4854  12.9271  13.1103  13.1103  13.9188  13.9305  14.1572
    14.3440  14.3440  16.0276  16.1461  16.1461  17.2214  17.2572  17.8146
    17.8701  18.3138  18.3138  18.3981  18.3981  18.3983  18.4063  18.4647
    21.9634  23.2362

          k = 0.0000 0.0000 0.2222 ( 12549 PWs)   bands (ev):

   -69.9373 -69.2547 -69.2113 -69.2057 -35.9951 -35.9951 -35.9938 -35.6120
   -35.6120 -35.6080 -35.1698 -35.1629 -35.1629 -35.1600 -35.1564 -35.1564
     0.6002  11.3377  12.5042  12.7672  12.7672  14.0811  14.1353  14.3089
    14.7508  14.7508  15.8448  16.2721  16.2721  17.1943  17.2857  17.7243
    17.7687  17.9542  17.9542  18.2392  18.3987  18.4015  18.4015  18.4620
    22.1773  22.5168

          k = 0.0000 0.0000 0.3333 ( 12553 PWs)   bands (ev):

   -69.9370 -69.2491 -69.2173 -69.2056 -35.9923 -35.9923 -35.9899 -35.6085
   -35.6085 -35.6005 -35.1848 -35.1666 -35.1666 -35.1609 -35.1593 -35.1593
     0.8281  10.6696  12.4972  12.4972  12.8459  14.1975  14.4173  14.5422
    15.1426  15.1426  15.5760  16.3646  16.3646  16.9836  17.3212  17.3615
    17.5815  17.5815  17.6125  18.0171  18.3991  18.4145  18.4145  18.4592
    22.0440  22.5715

          k = 0.0000 0.0000 0.4444 ( 12544 PWs)   bands (ev):

   -69.9368 -69.2437 -69.2228 -69.2056 -35.9904 -35.9904 -35.9874 -35.6062
   -35.6062 -35.5952 -35.1949 -35.1692 -35.1692 -35.1614 -35.1610 -35.1610
     0.9889  10.1828  12.3530  12.3530  13.4006  14.1246  14.6316  14.8078
    15.2873  15.4348  15.4348  16.3333  16.3333  16.7320  16.9437  17.3461
    17.3743  17.3743  17.6399  17.8044  18.3994  18.4297  18.4297  18.4575
    21.9108  22.7893

          k = 0.0000 0.1111 0.1111 ( 12557 PWs)   bands (ev):

   -69.9375 -69.2573 -69.2078 -69.2064 -35.9980 -35.9967 -35.9950 -35.6262
   -35.6138 -35.5997 -35.1704 -35.1610 -35.1606 -35.1573 -35.1549 -35.1485
     0.4850  11.5393  12.6985  12.8568  12.9537  13.9960  14.0038  14.2123
    14.4870  14.5135  16.0039  16.1627  16.1926  17.2487  17.2727  17.7259
    17.7832  18.2261  18.2639  18.3180  18.3243  18.4101  18.4789  18.5425
    22.0240  23.4380

          k = 0.0000 0.1111 0.2222 ( 12548 PWs)   bands (ev):

   -69.9373 -69.2535 -69.2116 -69.2067 -35.9964 -35.9942 -35.9917 -35.6337
   -35.6107 -35.5837 -35.1857 -35.1655 -35.1637 -35.1585 -35.1579 -35.1442
     0.6703  11.3589  12.2604  12.6629  12.6764  14.1571  14.2066  14.3623
    14.8143  14.8589  15.8417  16.2813  16.2889  17.1597  17.3234  17.4380
    17.5843  17.9115  18.1399  18.1982  18.2419  18.3838  18.5582  18.6823
    22.2026  22.6700

          k = 0.0000 0.1111 0.3333 ( 12541 PWs)   bands (ev):

   -69.9370 -69.2479 -69.2174 -69.2067 -35.9937 -35.9915 -35.9891 -35.6375
   -35.6070 -35.5697 -35.2009 -35.1706 -35.1673 -35.1609 -35.1604 -35.1420
     0.8986  10.6613  12.1383  12.4160  12.9458  14.2826  14.4859  14.5913
    15.1750  15.2145  15.5803  16.2917  16.3934  16.9294  17.0976  17.2658
    17.4903  17.5576  17.8564  18.0734  18.1796  18.3774  18.6299  18.6758
    22.2616  22.4503

          k = 0.0000 0.1111 0.4444 ( 12514 PWs)   bands (ev):

   -69.9368 -69.2426 -69.2228 -69.2067 -35.9912 -35.9896 -35.9881 -35.6387
   -35.6045 -35.5613 -35.2107 -35.1738 -35.1700 -35.1627 -35.1618 -35.1411
     1.0599  10.1713  12.0376  12.2806  13.4692  14.2192  14.7010  14.8575
    15.2906  15.4587  15.4814  16.1376  16.3912  16.6630  16.8639  17.2555
    17.3556  17.4656  17.7080  17.8995  18.1434  18.3754  18.6539  18.6758
    22.1430  22.6122

          k = 0.0000 0.2222 0.2222 ( 12528 PWs)   bands (ev):

   -69.9370 -69.2498 -69.2133 -69.2088 -35.9967 -35.9920 -35.9896 -35.6523
   -35.6071 -35.5583 -35.2070 -35.1681 -35.1661 -35.1615 -35.1602 -35.1306
     0.8565  11.2947  11.5675  12.4407  12.7895  14.3576  14.3836  14.5050
    15.0142  15.1102  15.7598  16.2749  16.3628  17.0226  17.0278  17.3104
    17.4586  17.7426  18.0344  18.0885  18.2579  18.3350  18.7086  18.9943
    22.1160  22.9985

          k = 0.0000 0.2222 0.3333 ( 12527 PWs)   bands (ev):

   -69.9368 -69.2445 -69.2179 -69.2097 -35.9953 -35.9895 -35.9889 -35.6647
   -35.6030 -35.5376 -35.2251 -35.1710 -35.1693 -35.1650 -35.1625 -35.1216
     1.0864  10.6284  11.3677  12.2332  13.1802  14.5163  14.6612  14.7162
    15.2787  15.3905  15.5581  16.0663  16.4959  16.7578  16.8085  17.1021
    17.4756  17.6358  17.8029  17.9579  18.1969  18.3521  18.8359  19.0293
    21.9456  22.8235

          k = 0.0000 0.2222 0.4444 ( 12515 PWs)   bands (ev):

   -69.9366 -69.2394 -69.2229 -69.2099 -35.9930 -35.9899 -35.9878 -35.6708
   -35.6003 -35.5258 -35.2355 -35.1729 -35.1719 -35.1670 -35.1640 -35.1171
     1.2491  10.1368  11.3031  12.1145  13.6798  14.4692  14.8909  14.9679
    15.2994  15.4957  15.5996  15.8226  16.5517  16.5535  16.6113  17.0967
    17.2980  17.5287  17.8749  17.8798  18.1778  18.2115  18.9125  18.9630
    21.9127  22.7456

          k = 0.0000 0.3333 0.3333 ( 12518 PWs)   bands (ev):

   -69.9366 -69.2396 -69.2195 -69.2131 -35.9957 -35.9902 -35.9872 -35.6841
   -35.5984 -35.5123 -35.2446 -35.1718 -35.1709 -35.1696 -35.1650 -35.1068
     1.3189  10.5582  10.5958  12.0537  13.5742  14.8384  14.8435  14.8883
    15.4139  15.4603  15.5951  15.7406  16.5551  16.6481  16.6579  16.8988
    17.3283  17.6092  17.7583  17.9054  18.0438  18.5480  19.0044  19.1745
    21.2661  23.3555

          k = 0.0000 0.3333 0.4444 ( 12517 PWs)   bands (ev):

   -69.9365 -69.2345 -69.2231 -69.2147 -35.9947 -35.9924 -35.9857 -35.6942
   -35.5954 -35.4982 -35.2555 -35.1740 -35.1720 -35.1709 -35.1668 -35.0991
     1.4838  10.0900  10.5351  11.9483  14.0224  14.7992  15.0850  15.1284
    15.2954  15.5099  15.5583  15.7465  16.4017  16.4740  16.7779  16.8318
    17.2033  17.3998  17.6209  17.9742  18.1740  18.5810  19.1030  19.1299
    20.9079  23.4488

          k = 0.0000 0.4444 0.4444 ( 12492 PWs)   bands (ev):

   -69.9364 -69.2289 -69.2236 -69.2198 -35.9953 -35.9944 -35.9843 -35.7065
   -35.5921 -35.4830 -35.2664 -35.1755 -35.1752 -35.1696 -35.1687 -35.0895
     1.6508  10.0557  10.0562  11.8496  14.3681  15.0248  15.1860  15.2540
    15.2591  15.4091  15.5746  15.8592  16.3139  16.3957  16.5771  16.9871
    17.1138  17.2348  17.4097  17.8579  18.3841  18.9444  19.1751  19.2131
    20.1305  23.9982

          k = 0.1111 0.1111 0.1111 ( 12563 PWs)   bands (ev):

   -69.9374 -69.2560 -69.2078 -69.2078 -35.9973 -35.9973 -35.9927 -35.6383
   -35.5986 -35.5986 -35.1734 -35.1696 -35.1696 -35.1506 -35.1488 -35.1488
     0.5548  11.5893  12.5636  12.5636  12.8355  14.0719  14.0719  14.3896
    14.3896  14.7341  15.9886  16.2023  16.2023  17.2669  17.2669  17.6643
    17.6643  17.9912  18.1233  18.3443  18.3443  18.4198  18.6410  18.6410
    22.0742  23.5625

          k = 0.1111 0.1111 0.2222 ( 12529 PWs)   bands (ev):

   -69.9372 -69.2522 -69.2118 -69.2078 -35.9963 -35.9955 -35.9895 -35.6505
   -35.5957 -35.5782 -35.1900 -35.1800 -35.1713 -35.1509 -35.1459 -35.1436
     0.7405  11.3709  12.1431  12.2978  12.7587  14.2325  14.2776  14.4625
    14.7621  15.0133  15.8442  16.2848  16.2953  17.1762  17.2941  17.3840
    17.4080  17.7636  17.9270  18.2176  18.3453  18.3563  18.8020  18.8328
    22.2208  22.8348

          k = 0.1111 0.1111 0.3333 ( 12526 PWs)   bands (ev):

   -69.9369 -69.2468 -69.2175 -69.2078 -35.9935 -35.9934 -35.9876 -35.6580
   -35.5923 -35.5607 -35.2062 -35.1887 -35.1724 -35.1526 -35.1466 -35.1395
     0.9694  10.6461  12.0640  12.0768  13.0382  14.3638  14.5548  14.6649
    15.1710  15.2804  15.5908  16.2781  16.3444  16.9169  17.0708  17.1117
    17.4310  17.6064  17.7042  18.0897  18.2502  18.3341  18.6811  18.9924
    22.4188  22.4434

          k = 0.1111 0.1111 0.4444 ( 12521 PWs)   bands (ev):

   -69.9367 -69.2415 -69.2229 -69.2078 -35.9921 -35.9902 -35.9878 -35.6613
   -35.5901 -35.5505 -35.2162 -35.1937 -35.1730 -35.1538 -35.1481 -35.1375
     1.1312  10.1542  11.9340  12.0077  13.5364  14.3073  14.7710  14.9231
    15.3010  15.4549  15.5305  16.0758  16.2782  16.6260  16.9674  17.0971
    17.3341  17.4992  17.7092  17.9302  18.1844  18.3239  18.5239  19.0839
    22.3368  22.5622

          k = 0.1111 0.2222 0.2222 ( 12537 PWs)   bands (ev):

   -69.9370 -69.2487 -69.2133 -69.2100 -35.9967 -35.9946 -35.9871 -35.6707
   -35.5865 -35.5574 -35.2081 -35.1851 -35.1816 -35.1465 -35.1456 -35.1309
     0.9272  11.2970  11.4890  12.0698  12.8955  14.4281  14.4566  14.6312
    14.9390  15.2088  15.7702  16.2697  16.3402  17.0318  17.0918  17.2143
    17.3958  17.5442  17.7222  18.2481  18.2498  18.3217  19.0777  19.1105
    22.1895  23.1064

          k = 0.1111 0.2222 0.3333 ( 12525 PWs)   bands (ev):

   -69.9368 -69.2436 -69.2179 -69.2106 -35.9956 -35.9931 -35.9865 -35.6849
   -35.5820 -35.5360 -35.2254 -35.1937 -35.1837 -35.1474 -35.1442 -35.1216
     1.1580  10.5980  11.3112  11.9147  13.2656  14.5775  14.7281  14.8336
    15.2638  15.3765  15.5837  16.1023  16.3721  16.7652  16.9126  17.0315
    17.4420  17.4782  17.6146  18.1520  18.1976  18.2545  18.9967  19.3338
    22.0569  22.8861

          k = 0.1111 0.2222 0.4444 ( 12540 PWs)   bands (ev):

   -69.9366 -69.2385 -69.2230 -69.2108 -35.9940 -35.9918 -35.9873 -35.6920
   -35.5795 -35.5235 -35.2354 -35.1993 -35.1842 -35.1482 -35.1442 -35.1170
     1.3215  10.1072  11.2411  11.8216  13.7358  14.5292  14.9596  15.0710
    15.3033  15.4785  15.6038  15.8649  16.2989  16.5435  16.8770  16.9675
    17.3024  17.4481  17.7964  18.0502  18.1009  18.2333  18.7429  19.4753
    22.0152  22.8356

          k = 0.1111 0.3333 0.3333 ( 12528 PWs)   bands (ev):

   -69.9366 -69.2388 -69.2195 -69.2139 -35.9964 -35.9931 -35.9865 -35.7051
   -35.5765 -35.5118 -35.2436 -35.1952 -35.1924 -35.1456 -35.1442 -35.1068
     1.3917  10.5242  10.5391  11.7567  13.6360  14.8225  14.9039  15.0687
    15.3297  15.4720  15.5695  15.9049  16.3666  16.6361  16.7527  16.9585
    17.3278  17.3353  17.7954  18.0113  18.1088  18.3396  19.2235  19.4680
    21.3617  23.2563

          k = 0.1111 0.3333 0.4444 ( 12508 PWs)   bands (ev):

   -69.9365 -69.2339 -69.2231 -69.2153 -35.9958 -35.9940 -35.9869 -35.7156
   -35.5736 -35.4978 -35.2538 -35.1995 -35.1936 -35.1454 -35.1441 -35.0991
     1.5577  10.0487  10.4832  11.6623  14.0409  14.7949  15.0910  15.2863
    15.2944  15.5094  15.5623  15.9174  16.2896  16.4462  16.7282  16.9209
    17.2028  17.3108  17.8566  17.9765  18.0304  18.4889  19.0170  19.6594
    20.9539  23.3825

          k = 0.1111 0.4444 0.4444 ( 12499 PWs)   bands (ev):

   -69.9364 -69.2287 -69.2236 -69.2201 -35.9965 -35.9958 -35.9867 -35.7282
   -35.5703 -35.4829 -35.2641 -35.1994 -35.1990 -35.1444 -35.1441 -35.0895
     1.7260  10.0073  10.0093  11.5674  14.3231  14.9817  15.0453  15.2046
    15.5460  15.5519  15.6299  16.0535  16.2558  16.3617  16.5046  16.9237
    17.1741  17.2216  17.6746  17.9345  18.0856  18.8779  19.1704  19.7001
    20.1197  23.7363

          k = 0.2222 0.2222 0.2222 ( 12524 PWs)   bands (ev):

   -69.9368 -69.2455 -69.2133 -69.2133 -35.9966 -35.9966 -35.9854 -35.6963
   -35.5550 -35.5550 -35.2156 -35.1983 -35.1983 -35.1334 -35.1334 -35.1293
     1.1156  11.2708  11.3111  11.3111  13.1132  14.6223  14.6223  14.9419
    14.9419  15.3041  15.7317  16.2794  16.2794  16.9692  16.9692  17.2824
    17.2824  17.2922  17.4271  18.2285  18.2285  18.3817  19.4147  19.4147
    22.2835  23.0621

          k = 0.2222 0.2222 0.3333 ( 12517 PWs)   bands (ev):

   -69.9366 -69.2408 -69.2181 -69.2132 -35.9965 -35.9965 -35.9861 -35.7155
   -35.5523 -35.5290 -35.2296 -35.2112 -35.2009 -35.1333 -35.1256 -35.1198
     1.3490  10.5167  11.1353  11.2354  13.4787  14.7338  14.8919  15.1006
    15.2917  15.2956  15.6689  16.1479  16.2340  16.7242  16.7861  17.1816
    17.1845  17.3773  17.5206  18.1616  18.2198  18.3163  19.2418  19.7641
    22.2487  22.6936

          k = 0.2222 0.2222 0.4444 ( 12513 PWs)   bands (ev):

   -69.9365 -69.2360 -69.2230 -69.2132 -35.9965 -35.9948 -35.9882 -35.7254
   -35.5505 -35.5144 -35.2386 -35.2183 -35.2012 -35.1339 -35.1222 -35.1143
     1.5148  10.0324  11.0316  11.1935  13.8847  14.6646  15.1473  15.1480
    15.4031  15.4925  15.6116  15.9866  16.1835  16.4975  16.7713  17.0063
    17.1468  17.5600  17.7232  18.0966  18.1965  18.2423  18.8108  20.0144
    22.2602  22.3756

          k = 0.2222 0.3333 0.3333 ( 12520 PWs)   bands (ev):

   -69.9365 -69.2366 -69.2195 -69.2161 -35.9983 -35.9974 -35.9879 -35.7393
   -35.5398 -35.5106 -35.2415 -35.2164 -35.2130 -35.1245 -35.1231 -35.1070
     1.5864  10.4046  10.4371  11.0620  13.7833  14.8927  14.9972  15.1536
    15.4038  15.4571  15.8015  16.1024  16.2131  16.6138  16.6342  16.9617
    17.3039  17.3490  17.6460  18.1529  18.2323  18.2821  19.4025  19.9183
    21.6313  22.6892

          k = 0.2222 0.3333 0.4444 ( 12507 PWs)   bands (ev):

   -69.9364 -69.2322 -69.2231 -69.2169 -35.9986 -35.9975 -35.9904 -35.7521
   -35.5365 -35.4964 -35.2499 -35.2223 -35.2144 -35.1241 -35.1191 -35.0991
     1.7557   9.9478  10.3577  10.9827  14.0722  14.8048  15.0272  15.2237
    15.4900  15.7147  15.8751  16.1617  16.1876  16.4233  16.6201  16.8035
    17.2859  17.5121  17.7755  18.1063  18.1695  18.3881  19.0266  20.2482
    21.0539  22.6439

          k = 0.2222 0.4444 0.4444 ( 12518 PWs)   bands (ev):

   -69.9363 -69.2279 -69.2235 -69.2208 -35.9995 -35.9992 -35.9925 -35.7665
   -35.5321 -35.4827 -35.2582 -35.2220 -35.2214 -35.1192 -35.1190 -35.0895
     1.9279   9.8897   9.8970  10.8923  14.2094  14.8978  14.9497  15.0890
    15.6723  16.0014  16.1136  16.2020  16.2633  16.3988  16.5121  16.6593
    17.4068  17.4416  17.8214  17.9829  18.1012  18.7645  19.1469  19.9408
    20.4396  22.9021

          k = 0.3333 0.3333 0.3333 ( 12505 PWs)   bands (ev):

   -69.9364 -69.2333 -69.2194 -69.2194 -36.0003 -36.0003 -35.9915 -35.7671
   -35.5092 -35.5092 -35.2426 -35.2283 -35.2283 -35.1094 -35.1094 -35.1050
     1.8294  10.2647  10.2647  10.4018  13.9569  14.9419  14.9945  14.9945
    15.6693  15.6693  16.1352  16.2178  16.2178  16.5752  16.5752  16.7365
    17.4734  17.5585  17.5585  18.2039  18.2039  18.3422  19.7537  19.7537
    21.9451  21.9451

          k = 0.3333 0.3333 0.4444 ( 12520 PWs)   bands (ev):

   -69.9363 -69.2296 -69.2231 -69.2194 -36.0017 -36.0009 -35.9952 -35.7821
   -35.5082 -35.4922 -35.2476 -35.2364 -35.2297 -35.1083 -35.1017 -35.0978
     2.0035   9.8386  10.1794  10.3014  14.0867  14.8129  14.9323  15.0659
    15.7098  15.9686  16.2182  16.2969  16.3760  16.5445  16.5849  16.7066
    17.4819  17.6855  17.7212  18.2223  18.2878  18.3195  19.0863  20.2692
    21.0592  21.9461

          k = 0.3333 0.4444 0.4444 ( 12510 PWs)   bands (ev):

   -69.9363 -69.2266 -69.2235 -69.2220 -36.0030 -36.0029 -35.9992 -35.7985
   -35.5000 -35.4825 -35.2516 -35.2382 -35.2375 -35.1001 -35.0998 -35.0895
     2.1817   9.7650   9.7772  10.1655  14.0870  14.8236  14.8779  14.9432
    15.8648  16.0632  16.2509  16.2628  16.4463  16.8097  16.8157  16.9890
    17.6310  17.6605  17.7495  18.2078  18.2602  18.5487  19.0740  19.6183
    20.9368  21.9307

          k = 0.4444 0.4444 0.4444 ( 12559 PWs)   bands (ev):

   -69.9363 -69.2251 -69.2235 -69.2235 -36.0051 -36.0051 -36.0038 -35.8161
   -35.4823 -35.4823 -35.2481 -35.2458 -35.2458 -35.0898 -35.0898 -35.0891
     2.3651   9.6881   9.6881   9.7164  14.0121  14.7928  14.8333  14.8333
    16.0116  16.0116  16.2628  16.2628  16.3292  17.4464  17.4464  17.4746
    17.7440  17.7440  17.9039  18.3145  18.3145  18.3172  18.9396  18.9396
    21.2440  21.2440

 ------ SPIN DOWN ----------


          k = 0.0000 0.0000 0.0000 ( 12533 PWs)   bands (ev):

   -67.3635 -67.3027 -67.3027 -66.5339 -33.9866 -33.9866 -33.9866 -33.2306
   -33.2306 -33.2306 -33.1919 -33.1919 -33.1919 -32.6394 -32.6394 -32.6394
     0.4462  11.7277  13.3947  13.3947  13.3947  15.2106  15.2106  15.5335
    15.5335  15.5335  18.0410  18.0410  18.0410  18.7045  18.7045  20.2816
    20.2816  20.2816  20.4080  20.4080  20.5092  20.8705  20.8705  20.8705
    23.0633  23.9612

          k = 0.0000 0.0000 0.1111 ( 12537 PWs)   bands (ev):

   -67.3618 -67.3043 -67.3027 -66.5340 -33.9854 -33.9854 -33.9849 -33.2310
   -33.2296 -33.2296 -33.1930 -33.1930 -33.1923 -32.6422 -32.6406 -32.6406
     0.5152  11.7586  13.0942  13.2811  13.2811  15.2705  15.3099  15.5907
    15.6866  15.6866  17.9633  18.1034  18.1034  18.7110  18.8013  20.2358
    20.2358  20.2818  20.3475  20.3643  20.4463  20.6201  20.6201  20.8705
    23.1047  23.6077

          k = 0.0000 0.0000 0.2222 ( 12549 PWs)   bands (ev):

   -67.3571 -67.3089 -67.3027 -66.5342 -33.9823 -33.9823 -33.9805 -33.2320
   -33.2271 -33.2271 -33.1958 -33.1958 -33.1931 -32.6496 -32.6436 -32.6436
     0.6979  11.5209  12.8546  13.0419  13.0419  15.3356  15.5856  15.7544
    16.0359  16.0359  17.7479  18.2771  18.2771  18.7204  18.8137  19.9886
    19.9886  20.1241  20.1427  20.2200  20.2200  20.2822  20.3764  20.8707
    23.0981  23.2963

          k = 0.0000 0.0000 0.3333 ( 12553 PWs)   bands (ev):

   -67.3502 -67.3154 -67.3027 -66.5344 -33.9787 -33.9787 -33.9754 -33.2331
   -33.2242 -33.2242 -33.1990 -33.1990 -33.1941 -32.6580 -32.6471 -32.6471
     0.9223  10.8625  12.8209  12.8209  13.2717  15.2192  15.9595  15.9954
    16.4087  16.4087  17.4485  18.5180  18.5180  18.5892  18.7025  19.4683
    19.4683  19.7686  19.8262  20.0525  20.0525  20.2828  20.3214  20.8709
    22.9354  23.5438

          k = 0.0000 0.0000 0.4444 ( 12544 PWs)   bands (ev):

   -67.3437 -67.3218 -67.3026 -66.5346 -33.9763 -33.9763 -33.9720 -33.2338
   -33.2223 -33.2223 -33.2010 -33.2010 -33.1948 -32.6635 -32.6494 -32.6494
     1.0802  10.3964  12.6954  12.6954  13.9346  14.7947  16.2270  16.2615
    16.6608  16.6608  17.1793  18.4154  18.6440  18.7635  18.7635  19.0529
    19.0529  19.4978  19.6036  19.9433  19.9433  20.2831  20.2853  20.8711
    22.9014  23.7477

          k = 0.0000 0.1111 0.1111 ( 12557 PWs)   bands (ev):

   -67.3602 -67.3051 -67.3035 -66.5340 -33.9981 -33.9842 -33.9695 -33.2351
   -33.2286 -33.2277 -33.1977 -33.1941 -33.1867 -32.6460 -32.6418 -32.6402
     0.5841  11.7908  12.8621  13.1405  13.1801  15.3466  15.3811  15.6566
    15.8146  15.8154  17.9270  18.1261  18.1577  18.7521  18.7966  20.1517
    20.1885  20.2133  20.2571  20.3570  20.4302  20.5232  20.5310  20.7747
    23.1396  23.8583

          k = 0.0000 0.1111 0.2222 ( 12548 PWs)   bands (ev):

   -67.3556 -67.3091 -67.3038 -66.5342 -34.0074 -33.9811 -33.9533 -33.2422
   -33.2259 -33.2255 -33.2010 -33.1969 -33.1815 -32.6524 -32.6449 -32.6423
     0.7670  11.5461  12.5126  12.9610  13.0783  15.4217  15.6385  15.8235
    16.1193  16.1286  17.7347  18.2826  18.2970  18.6945  18.7299  19.8199
    19.9568  19.9614  20.0875  20.2024  20.3612  20.3778  20.4817  20.7401
    23.2070  23.4011

          k = 0.0000 0.1111 0.3333 ( 12541 PWs)   bands (ev):

   -67.3489 -67.3155 -67.3038 -66.5345 -34.0131 -33.9776 -33.9397 -33.2492
   -33.2231 -33.2230 -33.2032 -33.2001 -33.1782 -32.6583 -32.6484 -32.6461
     0.9918  10.8683  12.4340  12.7536  13.4031  15.3131  16.0057  16.0654
    16.4578  16.4683  17.4441  18.3443  18.4937  18.5275  18.6582  19.4836
    19.4999  19.7218  19.8937  19.9373  20.2479  20.3628  20.3842  20.7408
    23.1201  23.4630

          k = 0.0000 0.1111 0.4444 ( 12514 PWs)   bands (ev):

   -67.3425 -67.3217 -67.3038 -66.5346 -34.0157 -33.9752 -33.9319 -33.2535
   -33.2213 -33.2211 -33.2045 -33.2021 -33.1767 -32.6618 -32.6508 -32.6490
     1.1500  10.3978  12.3630  12.6343  14.0097  14.9058  16.3025  16.3040
    16.6881  16.7030  17.1801  18.1819  18.3306  18.7855  18.7915  19.0849
    19.3043  19.5822  19.6172  19.8228  20.1430  20.3058  20.3645  20.7424
    23.1030  23.5992

          k = 0.0000 0.2222 0.2222 ( 12528 PWs)   bands (ev):

   -67.3513 -67.3109 -67.3061 -66.5344 -34.0288 -33.9781 -33.9267 -33.2583
   -33.2256 -33.2231 -33.2047 -33.1998 -33.1670 -32.6562 -32.6481 -32.6423
     0.9505  11.4992  11.8223  12.7778  13.2516  15.6150  15.7740  15.9973
    16.3297  16.3637  17.6309  18.2673  18.3694  18.5061  18.5786  19.6836
    19.7679  19.8179  19.9189  20.0932  20.4435  20.4475  20.5154  20.6847
    23.1191  23.9532

          k = 0.0000 0.2222 0.3333 ( 12527 PWs)   bands (ev):

   -67.3451 -67.3159 -67.3070 -66.5346 -34.0438 -33.9747 -33.9056 -33.2719
   -33.2254 -33.2199 -33.2089 -33.2029 -33.1558 -32.6580 -32.6517 -32.6447
     1.1762  10.8718  11.6511  12.5969  13.6634  15.5697  16.0778  16.2381
    16.5923  16.6216  17.4052  17.9795  18.2658  18.5836  18.5886  19.5183
    19.5366  19.7117  19.7451  19.8914  20.4105  20.4109  20.4838  20.6811
    23.0115  23.7343

          k = 0.0000 0.2222 0.4444 ( 12515 PWs)   bands (ev):

   -67.3390 -67.3216 -67.3073 -66.5347 -34.0515 -33.9724 -33.8939 -33.2796
   -33.2243 -33.2178 -33.2128 -33.2049 -33.1499 -32.6573 -32.6541 -32.6480
     1.3355  10.3960  11.6141  12.4903  14.2182  15.2001  16.3417  16.4882
    16.7633  16.8470  17.1757  17.7079  18.1342  18.6116  18.8659  19.1778
    19.3752  19.6216  19.6726  19.8136  20.3952  20.4156  20.4753  20.5142
    23.0488  23.6571

          k = 0.0000 0.3333 0.3333 ( 12518 PWs)   bands (ev):

   -67.3395 -67.3176 -67.3107 -66.5347 -34.0662 -33.9714 -33.8794 -33.2898
   -33.2278 -33.2163 -33.2161 -33.2062 -33.1382 -32.6557 -32.6555 -32.6450
     1.4038  10.8319  10.8969  12.4375  14.0754  15.8683  16.0259  16.4608
    16.7896  16.7990  17.2930  17.6315  18.0635  18.5077  18.7328  19.3587
    19.5304  19.5346  19.7312  19.9248  20.1458  20.5072  20.5136  20.8574
    22.5355  24.3133

          k = 0.0000 0.3333 0.4444 ( 12517 PWs)   bands (ev):

   -67.3337 -67.3215 -67.3124 -66.5348 -34.0779 -33.9692 -33.8650 -33.2995
   -33.2281 -33.2222 -33.2140 -33.2082 -33.1286 -32.6580 -32.6523 -32.6470
     1.5646  10.3852  10.8477  12.3419  14.5568  15.6033  16.2203  16.6896
    16.8594  17.0664  17.1526  17.3659  17.9797  18.4024  18.9743  19.2074
    19.2665  19.5027  19.5848  20.0346  20.0959  20.5256  20.5912  20.7761
    22.3309  24.3166

          k = 0.0000 0.4444 0.4444 ( 12492 PWs)   bands (ev):

   -67.3277 -67.3219 -67.3179 -66.5349 -34.0919 -33.9671 -33.8494 -33.3102
   -33.2303 -33.2286 -33.2116 -33.2103 -33.1170 -32.6606 -32.6485 -32.6469
     1.7269  10.3717  10.3757  12.2522  14.9225  15.9622  15.9822  16.8460
    16.9116  16.9141  17.1165  17.5506  17.9119  18.1332  19.0467  19.0619
    19.3043  19.4722  19.5334  19.7151  20.2626  20.5383  20.7784  20.8775
    21.8695  24.8265

          k = 0.1111 0.1111 0.1111 ( 12563 PWs)   bands (ev):

   -67.3586 -67.3050 -67.3050 -66.5341 -34.0115 -33.9683 -33.9683 -33.2360
   -33.2307 -33.2307 -33.1956 -33.1956 -33.1828 -32.6497 -32.6411 -32.6411
     0.6532  11.8237  12.7771  12.7771  13.1935  15.4347  15.4347  15.7978
    15.7978  15.9798  17.8992  18.1706  18.1706  18.7705  18.7705  20.0056
    20.1164  20.1420  20.1420  20.4004  20.4004  20.4019  20.6830  20.6830
    23.1809  24.0625

          k = 0.1111 0.1111 0.2222 ( 12529 PWs)   bands (ev):

   -67.3541 -67.3093 -67.3050 -66.5343 -34.0258 -33.9655 -33.9476 -33.2434
   -33.2380 -33.2287 -33.1955 -33.1927 -33.1771 -32.6555 -32.6434 -32.6429
     0.8363  11.5661  12.4035  12.5861  13.2015  15.5070  15.6956  15.9213
    16.1318  16.2323  17.7284  18.2744  18.2894  18.6800  18.6802  19.6473
    19.7882  19.9247  19.9925  20.2987  20.4491  20.4712  20.5379  20.7271
    23.2584  23.5522

          k = 0.1111 0.1111 0.3333 ( 12526 PWs)   bands (ev):

   -67.3476 -67.3156 -67.3050 -66.5345 -34.0355 -33.9623 -33.9304 -33.2516
   -33.2456 -33.2240 -33.1937 -33.1924 -33.1728 -32.6595 -32.6474 -32.6460
     1.0614  10.8679  12.3698  12.3989  13.5154  15.4058  16.0630  16.1447
    16.4745  16.5167  17.4469  18.2330  18.3236  18.6234  18.6584  19.2548
    19.5474  19.7153  19.8094  20.1299  20.3506  20.3762  20.5338  20.6669
    23.2543  23.4788

          k = 0.1111 0.1111 0.4444 ( 12521 PWs)   bands (ev):

   -67.3413 -67.3217 -67.3050 -66.5346 -34.0403 -33.9602 -33.9207 -33.2564
   -33.2503 -33.2199 -33.1939 -33.1923 -33.1707 -32.6603 -32.6521 -32.6478
     1.2200  10.3941  12.2893  12.3294  14.0812  15.0140  16.3633  16.3822
    16.6153  16.8201  17.1837  17.9895  18.2135  18.7871  18.8091  19.0181
    19.2798  19.6462  19.6871  20.0049  20.1066  20.3067  20.5542  20.6458
    23.2675  23.5689

          k = 0.1111 0.2222 0.2222 ( 12537 PWs)   bands (ev):

   -67.3500 -67.3109 -67.3073 -66.5344 -34.0488 -33.9566 -33.9259 -33.2588
   -33.2402 -33.2390 -33.1905 -33.1875 -33.1656 -32.6595 -32.6452 -32.6424
     1.0201  11.5141  11.7663  12.3869  13.3760  15.7044  15.8409  16.1109
    16.3312  16.3848  17.6415  18.2106  18.2627  18.5891  18.6016  19.4315
    19.5363  19.8333  19.8426  20.2437  20.4421  20.4843  20.7324  20.8285
    23.2302  23.9473

          k = 0.1111 0.2222 0.3333 ( 12525 PWs)   bands (ev):

   -67.3440 -67.3159 -67.3081 -66.5346 -34.0657 -33.9526 -33.9042 -33.2734
   -33.2498 -33.2379 -33.1877 -33.1853 -33.1550 -32.6604 -32.6481 -32.6444
     1.2465  10.8574  11.6116  12.2609  13.7620  15.6578  16.1554  16.3303
    16.5270  16.6652  17.4261  17.9405  18.1448  18.6005  18.6606  19.2780
    19.3043  19.7068  19.8062  20.0895  20.3802  20.4332  20.7262  20.8362
    23.1213  23.7697

          k = 0.1111 0.2222 0.4444 ( 12540 PWs)   bands (ev):

   -67.3380 -67.3216 -67.3082 -66.5347 -34.0745 -33.9504 -33.8918 -33.2814
   -33.2556 -33.2367 -33.1859 -33.1851 -33.1492 -32.6577 -32.6527 -32.6464
     1.4063  10.3800  11.5686  12.1835  14.2831  15.2976  16.4053  16.5685
    16.6592  16.9775  17.1954  17.6108  18.0537  18.6266  18.8409  19.0776
    19.1791  19.7029  19.8059  19.9539  20.3194  20.3829  20.4879  20.8719
    23.1470  23.7262

          k = 0.1111 0.3333 0.3333 ( 12528 PWs)   bands (ev):

   -67.3386 -67.3175 -67.3116 -66.5347 -34.0888 -33.9482 -33.8790 -33.2922
   -33.2525 -33.2491 -33.1847 -33.1829 -33.1379 -32.6594 -32.6493 -32.6443
     1.4750  10.8123  10.8547  12.1297  14.1548  15.9505  16.0732  16.5538
    16.6811  16.8731  17.3267  17.6478  17.9841  18.5072  18.7404  19.0986
    19.3923  19.5425  19.9238  19.9247  20.2616  20.4110  20.8983  20.9778
    22.5959  24.2109

          k = 0.1111 0.3333 0.4444 ( 12508 PWs)   bands (ev):

   -67.3331 -67.3215 -67.3130 -66.5348 -34.1011 -33.9459 -33.8647 -33.3023
   -33.2584 -33.2514 -33.1832 -33.1824 -33.1284 -32.6575 -32.6498 -32.6456
     1.6367  10.3568  10.8091  12.0486  14.6043  15.6785  16.2441  16.7772
    16.8627  17.0623  17.1774  17.4109  17.9283  18.4036  18.8154  18.9912
    19.3557  19.5849  19.7343  19.9964  20.1408  20.5093  20.7319  21.0728
    22.3519  24.2446

          k = 0.1111 0.4444 0.4444 ( 12499 PWs)   bands (ev):

   -67.3274 -67.3219 -67.3182 -66.5349 -34.1154 -33.9437 -33.8493 -33.3134
   -33.2605 -33.2598 -33.1818 -33.1816 -33.1169 -32.6580 -32.6469 -32.6456
     1.8001  10.3372  10.3387  11.9661  14.9331  15.9995  16.0393  16.8468
    16.9392  17.0014  17.1564  17.6199  17.8810  18.1381  18.6866  19.0342
    19.4388  19.5799  19.6273  19.9197  19.9907  20.7270  20.8652  21.1310
    21.8233  24.5854

          k = 0.2222 0.2222 0.2222 ( 12524 PWs)   bands (ev):

   -67.3463 -67.3109 -67.3109 -66.5346 -34.0775 -33.9239 -33.9239 -33.2612
   -33.2612 -33.2585 -33.1745 -33.1745 -33.1597 -32.6625 -32.6429 -32.6429
     1.2052  11.5056  11.6332  11.6332  13.6118  15.9656  15.9656  16.3810
    16.3960  16.3960  17.6133  18.0859  18.0859  18.6335  18.6335  19.2215
    19.2255  19.7408  19.7408  20.3381  20.4369  20.4369  21.0800  21.0800
    23.3972  23.8153

          k = 0.2222 0.2222 0.3333 ( 12517 PWs)   bands (ev):

   -67.3408 -67.3161 -67.3108 -66.5347 -34.0995 -33.9216 -33.8973 -33.2783
   -33.2760 -33.2614 -33.1695 -33.1641 -33.1502 -32.6615 -32.6444 -32.6433
     1.4336  10.8143  11.4941  11.5403  14.0010  15.8917  16.3473  16.3801
    16.5659  16.7438  17.4589  17.8192  17.9646  18.6056  18.6849  18.9744
    19.2131  19.6808  19.7892  20.2383  20.3907  20.4168  20.9557  21.2853
    23.3373  23.6137

          k = 0.2222 0.2222 0.4444 ( 12513 PWs)   bands (ev):

   -67.3353 -67.3215 -67.3108 -66.5348 -34.1113 -33.9201 -33.8825 -33.2877
   -33.2847 -33.2624 -33.1678 -33.1592 -33.1441 -32.6569 -32.6492 -32.6436
     1.5952  10.3372  11.4092  11.5220  14.4638  15.5468  16.4097  16.6962
    16.7870  17.0772  17.2509  17.4545  17.9242  18.6153  18.7201  18.7985
    19.2515  19.7832  19.8993  20.1209  20.3446  20.3566  20.5388  21.3917
    23.3746  23.4639

          k = 0.2222 0.3333 0.3333 ( 12520 PWs)   bands (ev):

   -67.3362 -67.3175 -67.3139 -66.5348 -34.1264 -33.9093 -33.8781 -33.2981
   -33.2826 -33.2787 -33.1586 -33.1567 -33.1370 -32.6589 -32.6434 -32.6425
     1.6651  10.7517  10.7597  11.4197  14.3573  16.1251  16.1725  16.5859
    16.7955  16.9206  17.4225  17.6826  17.8429  18.5145  18.6474  18.7608
    19.3524  19.6420  19.8903  20.1760  20.3801  20.3972  21.0667  21.4859
    22.7512  23.7078

          k = 0.2222 0.3333 0.4444 ( 12507 PWs)   bands (ev):

   -67.3312 -67.3215 -67.3148 -66.5348 -34.1408 -33.9064 -33.8634 -33.3093
   -33.2913 -33.2831 -33.1562 -33.1520 -33.1279 -32.6543 -32.6453 -32.6422
     1.8294  10.2852  10.7137  11.3579  14.7231  15.8567  16.2686  16.8383
    17.0105  17.0608  17.3086  17.5570  17.8457  18.4188  18.5336  18.7258
    19.4677  19.7470  19.9623  20.0609  20.3208  20.4541  20.7319  21.6894
    22.3540  23.6880

          k = 0.2222 0.4444 0.4444 ( 12518 PWs)   bands (ev):

   -67.3265 -67.3218 -67.3190 -66.5349 -34.1568 -33.9024 -33.8491 -33.3213
   -33.2950 -33.2943 -33.1508 -33.1505 -33.1168 -32.6514 -32.6428 -32.6424
     1.9960  10.2478  10.2519  11.2850  14.9443  16.0836  16.1700  16.6778
    17.2033  17.2398  17.3383  17.7452  17.8432  18.1947  18.3673  18.7273
    19.6939  19.7348  19.8890  19.9596  20.2297  20.6463  20.8148  21.6134
    21.8562  23.8902

          k = 0.3333 0.3333 0.3333 ( 12505 PWs)   bands (ev):

   -67.3325 -67.3175 -67.3175 -66.5348 -34.1570 -33.8771 -33.8771 -33.3059
   -33.3059 -33.3000 -33.1405 -33.1405 -33.1334 -32.6545 -32.6404 -32.6404
     1.9012  10.6409  10.6409  10.7350  14.6291  16.0838  16.4465  16.4465
    17.0957  17.0957  17.5101  17.7471  17.7471  18.4504  18.5254  18.5254
    19.5063  19.8513  19.8513  20.2895  20.3759  20.3759  21.3673  21.3673
    22.9688  22.9688

          k = 0.3333 0.3333 0.4444 ( 12520 PWs)   bands (ev):

   -67.3284 -67.3214 -67.3174 -66.5348 -34.1736 -33.8764 -33.8593 -33.3185
   -33.3146 -33.3076 -33.1378 -33.1313 -33.1257 -32.6489 -32.6411 -32.6391
     2.0694  10.2049  10.5718  10.6654  14.8542  16.0352  16.2875  16.6327
    17.3154  17.3326  17.5108  17.7315  17.8242  18.2898  18.4212  18.5171
    19.6666  19.9041  20.0201  20.2099  20.3905  20.4080  20.7759  21.7174
    22.3421  23.1529

          k = 0.3333 0.4444 0.4444 ( 12510 PWs)   bands (ev):

   -67.3252 -67.3218 -67.3202 -66.5348 -34.1916 -33.8678 -33.8490 -33.3301
   -33.3215 -33.3207 -33.1285 -33.1282 -33.1167 -32.6438 -32.6387 -32.6384
     2.2409  10.1489  10.1585  10.5576  14.9331  16.1686  16.2822  16.4794
    17.5926  17.5995  17.6672  17.8601  17.8664  18.1334  18.3000  18.4923
    19.8637  19.9510  20.0416  20.1413  20.4196  20.4852  20.7227  21.2311
    22.3660  23.1195

          k = 0.4444 0.4444 0.4444 ( 12559 PWs)   bands (ev):

   -67.3236 -67.3218 -67.3218 -66.5348 -34.2107 -33.8488 -33.8488 -33.3358
   -33.3358 -33.3348 -33.1170 -33.1170 -33.1161 -32.6383 -32.6362 -32.6362
     2.4166  10.0867  10.0867  10.1093  14.9149  16.2386  16.3299  16.3299
    17.8948  17.8948  17.9810  17.9810  17.9854  18.0022  18.3663  18.3663
    20.0130  20.0709  20.0709  20.2603  20.3446  20.3446  20.7348  20.7348
    22.6687  22.6687

     the Fermi energy is    18.7318 ev

!    total energy              =   -1345.17093376 Ry
     Harris-Foulkes estimate   =   -1345.17093376 Ry
     estimated scf accuracy    <          2.7E-09 Ry

     total all-electron energy =    -10291.772569 Ry

     The total energy is the sum of the following terms:

     one-electron contribution =    -446.73822503 Ry
     hartree contribution      =     269.20329633 Ry
     xc contribution           =    -117.08734626 Ry
     ewald contribution        =    -711.61403732 Ry
     one-center paw contrib.   =    -338.93471173 Ry
     smearing contrib. (-TS)   =       0.00009025 Ry

     total magnetization       =     7.68 Bohr mag/cell
     absolute magnetization    =     8.03 Bohr mag/cell

     convergence has been achieved in  27 iterations

     Forces acting on atoms (Ry/au):


     negative rho (up, down):  0.000E+00 1.935E-04
     atom    1 type  1   force =     0.00000000    0.00000000    0.00000000
     atom    2 type  1   force =     0.00000000    0.00000000    0.00000000
     atom    3 type  1   force =     0.00000000    0.00000000    0.00000000
     atom    4 type  1   force =     0.00000000    0.00000000    0.00000000
     atom    5 type  2   force =     0.00000000    0.00000000    0.00000000

     Total force =     0.000000     Total SCF correction =     0.000000


     entering subroutine stress ...


     negative rho (up, down):  0.000E+00 1.935E-04
          total   stress  (Ry/bohr**3)                   (kbar)     P=  150.16
   0.00102077   0.00000000   0.00000000        150.16      0.00      0.00
   0.00000000   0.00102077   0.00000000          0.00    150.16      0.00
   0.00000000   0.00000000   0.00102077          0.00      0.00    150.16


     Writing output data file config.save
 
     init_run     :     18.90s CPU     19.58s WALL (       1 calls)
     electrons    :   1385.93s CPU   1417.41s WALL (       1 calls)
     forces       :      4.61s CPU      5.33s WALL (       1 calls)
     stress       :     15.03s CPU     16.04s WALL (       1 calls)

     Called by init_run:
     wfcinit      :     14.27s CPU     14.50s WALL (       1 calls)
     potinit      :      1.59s CPU      1.67s WALL (       1 calls)

     Called by electrons:
     c_bands      :    881.53s CPU    890.68s WALL (      27 calls)
     sum_band     :    426.88s CPU    439.30s WALL (      27 calls)
     v_of_rho     :     23.65s CPU     24.03s WALL (      28 calls)
     newd         :     38.45s CPU     47.71s WALL (      28 calls)
     mix_rho      :      4.42s CPU      4.44s WALL (      27 calls)

     Called by c_bands:
     init_us_2    :      7.94s CPU      8.09s WALL (    3990 calls)
     cegterg      :    853.98s CPU    862.72s WALL (    1890 calls)

     Called by sum_band:
     sum_band:bec :      0.07s CPU      0.07s WALL (    1890 calls)
     addusdens    :    120.94s CPU    129.83s WALL (      27 calls)

     Called by *egterg:
     h_psi        :    767.61s CPU    775.50s WALL (    6342 calls)
     s_psi        :     10.96s CPU     11.06s WALL (    6342 calls)
     g_psi        :      2.07s CPU      2.09s WALL (    4382 calls)
     cdiaghg      :     18.55s CPU     18.78s WALL (    6272 calls)

     Called by h_psi:
     add_vuspsi   :     10.67s CPU     10.83s WALL (    6342 calls)

     General routines
     calbec       :     18.90s CPU     19.52s WALL (    8582 calls)
     fft          :     24.74s CPU     24.86s WALL (     902 calls)
     ffts         :      0.12s CPU      0.12s WALL (     110 calls)
     fftw         :    334.63s CPU    337.91s WALL (  448856 calls)
     interpolate  :      3.67s CPU      3.68s WALL (     110 calls)
     davcio       :      0.17s CPU      0.43s WALL (      70 calls)
 
     Parallel routines
     fft_scatter  :    188.30s CPU    190.82s WALL (  449868 calls)

     PAW routines
     PAW_pot      :     11.00s CPU     11.42s WALL (      28 calls)
     PAW_symme    :      0.04s CPU      0.04s WALL (      55 calls)
 
     PWSCF        : 23m45.56s CPU    24m19.90s WALL

 
   This run was terminated on:  21:45:20  27Oct2020            

=------------------------------------------------------------------------------=
   JOB DONE.
=------------------------------------------------------------------------------=
