
     Program PWSCF v.5.2.0 starts on 27Oct2020 at 13:54:23 

     This program is part of the open-source Quantum ESPRESSO suite
     for quantum simulation of materials; please cite
         "P. Giannozzi et al., J. Phys.:Condens. Matter 21 395502 (2009);
          URL http://www.quantum-espresso.org", 
     in publications or presentations arising from this work. More details at
     http://www.quantum-espresso.org/quote

     Parallel version (MPI), running on     6 processors
     R & G space division:  proc/nbgrp/npool/nimage =       6
     Reading input from 2.in

     Current dimensions of program PWSCF are:
     Max number of different atomic species (ntypx) = 10
     Max number of k-points (npk) =  40000
     Max angular momentum in pseudopotentials (lmaxx) =  3

     IMPORTANT: XC functional enforced from input :
     Exchange-correlation      = PBE ( 1  4  3  4 0 0)
     Any further DFT definition will be discarded
     Please, verify this is what you really want

               file Fe_PSEUDO: wavefunction(s)  3P 3D renormalized
               file N_PSEUDO: wavefunction(s)  2S renormalized

     Subspace diagonalization in iterative solution of the eigenvalue problem:
     a serial algorithm will be used

 
     Parallelization info
     --------------------
     sticks:   dense  smooth     PW     G-vecs:    dense   smooth      PW
     Min         217     217    120                 5917     5917    2460
     Max         218     218    121                 5922     5922    2463
     Sum        1305    1305    725                35513    35513   14771
 
     Generating pointlists ...
     new r_m :   0.2063 (alat units)  1.4318 (a.u.) for type    1
     new r_m :   0.2063 (alat units)  1.4318 (a.u.) for type    2


     bravais-lattice index     =            0
     lattice parameter (alat)  =       6.9422  a.u.
     unit-cell volume          =     334.5777 (a.u.)^3
     number of atoms/cell      =            5
     number of atomic types    =            2
     number of electrons       =        69.00
     number of Kohn-Sham states=           42
     kinetic-energy cutoff     =     170.0000  Ry
     charge density cutoff     =     340.0000  Ry
     convergence threshold     =      1.0E-08
     mixing beta               =       0.7000
     number of iterations used =            8  plain     mixing
     Exchange-correlation      = PBE ( 1  4  3  4 0 0)

     celldm(1)=   6.942230  celldm(2)=   0.000000  celldm(3)=   0.000000
     celldm(4)=   0.000000  celldm(5)=   0.000000  celldm(6)=   0.000000

     crystal axes: (cart. coord. in units of alat)
               a(1) = (   1.000000   0.000000   0.000000 )  
               a(2) = (   0.000000   1.000000   0.000000 )  
               a(3) = (   0.000000   0.000000   1.000000 )  

     reciprocal axes: (cart. coord. in units 2 pi/alat)
               b(1) = (  1.000000  0.000000  0.000000 )  
               b(2) = (  0.000000  1.000000  0.000000 )  
               b(3) = (  0.000000  0.000000  1.000000 )  


     PseudoPot. # 1 for Fe read from file:
     pseudo/Fe_PSEUDO
     MD5 check sum: e30d5f36a6f0cb983ee41abee56170da
     Pseudo is Projector augmented-wave + core cor, Zval = 16.0
     Generated using "atomic" code by A. Dal Corso  v.6.3
     Shape of augmentation charge: PSQ
     Using radial grid of 1191 points,  6 beta functions with: 
                l(1) =   0
                l(2) =   0
                l(3) =   1
                l(4) =   1
                l(5) =   2
                l(6) =   2
     Q(r) pseudized with 0 coefficients 


     PseudoPot. # 2 for  N read from file:
     pseudo/N_PSEUDO
     MD5 check sum: 14c48229446f9f2d411169a3abcbc3fa
     Pseudo is Projector augmented-wave + core cor, Zval =  5.0
     Generated using "atomic" code by A. Dal Corso  v.6.3
     Shape of augmentation charge: PSQ
     Using radial grid of 1085 points,  4 beta functions with: 
                l(1) =   0
                l(2) =   0
                l(3) =   1
                l(4) =   1
     Q(r) pseudized with 0 coefficients 


     atomic species   valence    mass     pseudopotential
        Fe            16.00    55.84500     Fe( 1.00)
        N              5.00    14.00650      N( 1.00)

     Starting magnetic structure 
     atomic species   magnetization
        Fe           0.500
        N           -0.010

     48 Sym. Ops., with inversion, found



   Cartesian axes

     site n.     atom                  positions (alat units)
         1           Fe  tau(   1) = (   0.0000000   0.5000000   0.5000000  )
         2           Fe  tau(   2) = (   0.5000000   0.5000000   0.0000000  )
         3           Fe  tau(   3) = (   0.5000000   0.0000000   0.5000000  )
         4           Fe  tau(   4) = (   0.0000000   0.0000000   0.0000000  )
         5           N   tau(   5) = (   0.5000000   0.5000000   0.5000000  )

     number of k points=    70  Marzari-Vanderbilt smearing, width (Ry)=  0.0050
                       cart. coord. in units 2pi/alat
        k(    1) = (   0.0000000   0.0000000   0.0000000), wk =   0.0013717
        k(    2) = (   0.0000000   0.0000000   0.1111111), wk =   0.0082305
        k(    3) = (   0.0000000   0.0000000   0.2222222), wk =   0.0082305
        k(    4) = (   0.0000000   0.0000000   0.3333333), wk =   0.0082305
        k(    5) = (   0.0000000   0.0000000   0.4444444), wk =   0.0082305
        k(    6) = (   0.0000000   0.1111111   0.1111111), wk =   0.0164609
        k(    7) = (   0.0000000   0.1111111   0.2222222), wk =   0.0329218
        k(    8) = (   0.0000000   0.1111111   0.3333333), wk =   0.0329218
        k(    9) = (   0.0000000   0.1111111   0.4444444), wk =   0.0329218
        k(   10) = (   0.0000000   0.2222222   0.2222222), wk =   0.0164609
        k(   11) = (   0.0000000   0.2222222   0.3333333), wk =   0.0329218
        k(   12) = (   0.0000000   0.2222222   0.4444444), wk =   0.0329218
        k(   13) = (   0.0000000   0.3333333   0.3333333), wk =   0.0164609
        k(   14) = (   0.0000000   0.3333333   0.4444444), wk =   0.0329218
        k(   15) = (   0.0000000   0.4444444   0.4444444), wk =   0.0164609
        k(   16) = (   0.1111111   0.1111111   0.1111111), wk =   0.0109739
        k(   17) = (   0.1111111   0.1111111   0.2222222), wk =   0.0329218
        k(   18) = (   0.1111111   0.1111111   0.3333333), wk =   0.0329218
        k(   19) = (   0.1111111   0.1111111   0.4444444), wk =   0.0329218
        k(   20) = (   0.1111111   0.2222222   0.2222222), wk =   0.0329218
        k(   21) = (   0.1111111   0.2222222   0.3333333), wk =   0.0658436
        k(   22) = (   0.1111111   0.2222222   0.4444444), wk =   0.0658436
        k(   23) = (   0.1111111   0.3333333   0.3333333), wk =   0.0329218
        k(   24) = (   0.1111111   0.3333333   0.4444444), wk =   0.0658436
        k(   25) = (   0.1111111   0.4444444   0.4444444), wk =   0.0329218
        k(   26) = (   0.2222222   0.2222222   0.2222222), wk =   0.0109739
        k(   27) = (   0.2222222   0.2222222   0.3333333), wk =   0.0329218
        k(   28) = (   0.2222222   0.2222222   0.4444444), wk =   0.0329218
        k(   29) = (   0.2222222   0.3333333   0.3333333), wk =   0.0329218
        k(   30) = (   0.2222222   0.3333333   0.4444444), wk =   0.0658436
        k(   31) = (   0.2222222   0.4444444   0.4444444), wk =   0.0329218
        k(   32) = (   0.3333333   0.3333333   0.3333333), wk =   0.0109739
        k(   33) = (   0.3333333   0.3333333   0.4444444), wk =   0.0329218
        k(   34) = (   0.3333333   0.4444444   0.4444444), wk =   0.0329218
        k(   35) = (   0.4444444   0.4444444   0.4444444), wk =   0.0109739
        k(   36) = (   0.0000000   0.0000000   0.0000000), wk =   0.0013717
        k(   37) = (   0.0000000   0.0000000   0.1111111), wk =   0.0082305
        k(   38) = (   0.0000000   0.0000000   0.2222222), wk =   0.0082305
        k(   39) = (   0.0000000   0.0000000   0.3333333), wk =   0.0082305
        k(   40) = (   0.0000000   0.0000000   0.4444444), wk =   0.0082305
        k(   41) = (   0.0000000   0.1111111   0.1111111), wk =   0.0164609
        k(   42) = (   0.0000000   0.1111111   0.2222222), wk =   0.0329218
        k(   43) = (   0.0000000   0.1111111   0.3333333), wk =   0.0329218
        k(   44) = (   0.0000000   0.1111111   0.4444444), wk =   0.0329218
        k(   45) = (   0.0000000   0.2222222   0.2222222), wk =   0.0164609
        k(   46) = (   0.0000000   0.2222222   0.3333333), wk =   0.0329218
        k(   47) = (   0.0000000   0.2222222   0.4444444), wk =   0.0329218
        k(   48) = (   0.0000000   0.3333333   0.3333333), wk =   0.0164609
        k(   49) = (   0.0000000   0.3333333   0.4444444), wk =   0.0329218
        k(   50) = (   0.0000000   0.4444444   0.4444444), wk =   0.0164609
        k(   51) = (   0.1111111   0.1111111   0.1111111), wk =   0.0109739
        k(   52) = (   0.1111111   0.1111111   0.2222222), wk =   0.0329218
        k(   53) = (   0.1111111   0.1111111   0.3333333), wk =   0.0329218
        k(   54) = (   0.1111111   0.1111111   0.4444444), wk =   0.0329218
        k(   55) = (   0.1111111   0.2222222   0.2222222), wk =   0.0329218
        k(   56) = (   0.1111111   0.2222222   0.3333333), wk =   0.0658436
        k(   57) = (   0.1111111   0.2222222   0.4444444), wk =   0.0658436
        k(   58) = (   0.1111111   0.3333333   0.3333333), wk =   0.0329218
        k(   59) = (   0.1111111   0.3333333   0.4444444), wk =   0.0658436
        k(   60) = (   0.1111111   0.4444444   0.4444444), wk =   0.0329218
        k(   61) = (   0.2222222   0.2222222   0.2222222), wk =   0.0109739
        k(   62) = (   0.2222222   0.2222222   0.3333333), wk =   0.0329218
        k(   63) = (   0.2222222   0.2222222   0.4444444), wk =   0.0329218
        k(   64) = (   0.2222222   0.3333333   0.3333333), wk =   0.0329218
        k(   65) = (   0.2222222   0.3333333   0.4444444), wk =   0.0658436
        k(   66) = (   0.2222222   0.4444444   0.4444444), wk =   0.0329218
        k(   67) = (   0.3333333   0.3333333   0.3333333), wk =   0.0109739
        k(   68) = (   0.3333333   0.3333333   0.4444444), wk =   0.0329218
        k(   69) = (   0.3333333   0.4444444   0.4444444), wk =   0.0329218
        k(   70) = (   0.4444444   0.4444444   0.4444444), wk =   0.0109739

     Dense  grid:    35513 G-vectors     FFT dimensions: (  45,  45,  45)

     Largest allocated arrays     est. size (Mb)     dimensions
        Kohn-Sham Wavefunctions         1.36 Mb     (    2120,   42)
        NL pseudopotentials             2.59 Mb     (    2120,   80)
        Each V/rho on FFT grid          0.49 Mb     (   16200,   2)
        Each G-vector array             0.05 Mb     (    5922)
        G-vector shells                 0.00 Mb     (     345)
     Largest temporary arrays     est. size (Mb)     dimensions
        Auxiliary wavefunctions         5.43 Mb     (    2120,  168)
        Each subspace H/S matrix        0.43 Mb     (     168,  168)
        Each <psi_i|beta_j> matrix      0.05 Mb     (      80,   42)
        Arrays for rho mixing           1.98 Mb     (   16200,    8)

     Check: negative/imaginary core charge=   -0.000007    0.000000

     Initial potential from superposition of free atoms

     starting charge   68.99837, renormalised to   69.00000
     Starting wfc are   44 randomized atomic wfcs
     Checking if some PAW data can be deallocated... 

     total cpu time spent up to now is        4.3 secs

     per-process dynamical memory:   134.5 Mb

     Self-consistent Calculation

     iteration #  1     ecut=   170.00 Ry     beta=0.70
     Davidson diagonalization with overlap
     ethr =  1.00E-02,  avg # of iterations =  3.1

     negative rho (up, down):  0.000E+00 3.486E-04
 
     Magnetic moment per site:
     atom:    1    charge:   12.7330    magn:    4.0973    constr:    0.0000
     atom:    2    charge:   12.7330    magn:    4.0973    constr:    0.0000
     atom:    3    charge:   12.7330    magn:    4.0973    constr:    0.0000
     atom:    4    charge:   12.6149    magn:    4.1671    constr:    0.0000
     atom:    5    charge:    4.6364    magn:    0.1185    constr:    0.0000

     total cpu time spent up to now is       15.1 secs

     total energy              =   -1344.14495861 Ry
     Harris-Foulkes estimate   =   -1343.44662266 Ry
     estimated scf accuracy    <       2.86701003 Ry

     total magnetization       =    13.87 Bohr mag/cell
     absolute magnetization    =    14.05 Bohr mag/cell

     iteration #  2     ecut=   170.00 Ry     beta=0.70
     Davidson diagonalization with overlap
     ethr =  4.16E-03,  avg # of iterations =  3.3

     negative rho (up, down):  0.000E+00 6.362E-05
 
     Magnetic moment per site:
     atom:    1    charge:   12.7239    magn:    3.8167    constr:    0.0000
     atom:    2    charge:   12.7239    magn:    3.8167    constr:    0.0000
     atom:    3    charge:   12.7239    magn:    3.8167    constr:    0.0000
     atom:    4    charge:   13.0662    magn:    3.5706    constr:    0.0000
     atom:    5    charge:    4.2268    magn:    0.0572    constr:    0.0000

     total cpu time spent up to now is       25.8 secs

     total energy              =   -1343.30038648 Ry
     Harris-Foulkes estimate   =   -1345.75076183 Ry
     estimated scf accuracy    <       8.52347856 Ry

     total magnetization       =     9.38 Bohr mag/cell
     absolute magnetization    =    10.50 Bohr mag/cell

     iteration #  3     ecut=   170.00 Ry     beta=0.70
     Davidson diagonalization with overlap
     ethr =  4.16E-03,  avg # of iterations =  3.5

     negative rho (up, down):  0.000E+00 5.758E-05
 
     Magnetic moment per site:
     atom:    1    charge:   12.8847    magn:    3.4477    constr:    0.0000
     atom:    2    charge:   12.8847    magn:    3.4477    constr:    0.0000
     atom:    3    charge:   12.8847    magn:    3.4477    constr:    0.0000
     atom:    4    charge:   12.8134    magn:    3.0178    constr:    0.0000
     atom:    5    charge:    4.0306    magn:    0.0242    constr:    0.0000

     total cpu time spent up to now is       36.9 secs

     total energy              =   -1343.62240370 Ry
     Harris-Foulkes estimate   =   -1346.18981548 Ry
     estimated scf accuracy    <      25.52394438 Ry

     total magnetization       =     3.80 Bohr mag/cell
     absolute magnetization    =     4.50 Bohr mag/cell

     iteration #  4     ecut=   170.00 Ry     beta=0.70
     Davidson diagonalization with overlap
     ethr =  4.16E-03,  avg # of iterations =  3.2

     negative rho (up, down):  0.000E+00 2.478E-04
 
     Magnetic moment per site:
     atom:    1    charge:   12.7740    magn:    2.2620    constr:    0.0000
     atom:    2    charge:   12.7740    magn:    2.2620    constr:    0.0000
     atom:    3    charge:   12.7740    magn:    2.2620    constr:    0.0000
     atom:    4    charge:   12.7297    magn:    1.8777    constr:    0.0000
     atom:    5    charge:    4.0539    magn:   -0.0486    constr:    0.0000

     total cpu time spent up to now is       47.3 secs

     total energy              =   -1345.02962945 Ry
     Harris-Foulkes estimate   =   -1345.10759443 Ry
     estimated scf accuracy    <       0.54884345 Ry

     total magnetization       =    10.75 Bohr mag/cell
     absolute magnetization    =    11.16 Bohr mag/cell

     iteration #  5     ecut=   170.00 Ry     beta=0.70
     Davidson diagonalization with overlap
     ethr =  7.95E-04,  avg # of iterations =  3.3

     negative rho (up, down):  0.000E+00 2.658E-04
 
     Magnetic moment per site:
     atom:    1    charge:   12.8328    magn:    2.1624    constr:    0.0000
     atom:    2    charge:   12.8328    magn:    2.1624    constr:    0.0000
     atom:    3    charge:   12.8328    magn:    2.1624    constr:    0.0000
     atom:    4    charge:   12.8053    magn:    2.0410    constr:    0.0000
     atom:    5    charge:    4.1106    magn:   -0.0268    constr:    0.0000

     total cpu time spent up to now is       58.6 secs

     total energy              =   -1345.11519826 Ry
     Harris-Foulkes estimate   =   -1345.20237653 Ry
     estimated scf accuracy    <       0.24058172 Ry

     total magnetization       =     9.59 Bohr mag/cell
     absolute magnetization    =     9.95 Bohr mag/cell

     iteration #  6     ecut=   170.00 Ry     beta=0.70
     Davidson diagonalization with overlap
     ethr =  3.49E-04,  avg # of iterations =  3.0

     negative rho (up, down):  0.000E+00 3.583E-04
 
     Magnetic moment per site:
     atom:    1    charge:   12.8266    magn:    2.1147    constr:    0.0000
     atom:    2    charge:   12.8266    magn:    2.1147    constr:    0.0000
     atom:    3    charge:   12.8266    magn:    2.1147    constr:    0.0000
     atom:    4    charge:   12.7943    magn:    2.3688    constr:    0.0000
     atom:    5    charge:    4.1125    magn:    0.0064    constr:    0.0000

     total cpu time spent up to now is       69.0 secs

     total energy              =   -1345.16195161 Ry
     Harris-Foulkes estimate   =   -1345.15770260 Ry
     estimated scf accuracy    <       0.02602003 Ry

     total magnetization       =     9.38 Bohr mag/cell
     absolute magnetization    =     9.72 Bohr mag/cell

     iteration #  7     ecut=   170.00 Ry     beta=0.70
     Davidson diagonalization with overlap
     ethr =  3.77E-05,  avg # of iterations =  1.7

     negative rho (up, down):  0.000E+00 5.200E-04
 
     Magnetic moment per site:
     atom:    1    charge:   12.8273    magn:    1.9571    constr:    0.0000
     atom:    2    charge:   12.8273    magn:    1.9571    constr:    0.0000
     atom:    3    charge:   12.8273    magn:    1.9571    constr:    0.0000
     atom:    4    charge:   12.7739    magn:    2.8109    constr:    0.0000
     atom:    5    charge:    4.1118    magn:    0.0392    constr:    0.0000

     total cpu time spent up to now is       77.8 secs

     total energy              =   -1345.16182376 Ry
     Harris-Foulkes estimate   =   -1345.16371134 Ry
     estimated scf accuracy    <       0.01808216 Ry

     total magnetization       =     9.38 Bohr mag/cell
     absolute magnetization    =     9.71 Bohr mag/cell

     iteration #  8     ecut=   170.00 Ry     beta=0.70
     Davidson diagonalization with overlap
     ethr =  2.62E-05,  avg # of iterations =  2.2

     negative rho (up, down):  0.000E+00 5.181E-04
 
     Magnetic moment per site:
     atom:    1    charge:   12.8304    magn:    1.8624    constr:    0.0000
     atom:    2    charge:   12.8304    magn:    1.8624    constr:    0.0000
     atom:    3    charge:   12.8304    magn:    1.8624    constr:    0.0000
     atom:    4    charge:   12.7764    magn:    2.7254    constr:    0.0000
     atom:    5    charge:    4.1097    magn:    0.0310    constr:    0.0000

     total cpu time spent up to now is       87.4 secs

     total energy              =   -1345.16686650 Ry
     Harris-Foulkes estimate   =   -1345.16588989 Ry
     estimated scf accuracy    <       0.00208997 Ry

     total magnetization       =     9.00 Bohr mag/cell
     absolute magnetization    =     9.35 Bohr mag/cell

     iteration #  9     ecut=   170.00 Ry     beta=0.70
     Davidson diagonalization with overlap
     ethr =  3.03E-06,  avg # of iterations =  2.1

     negative rho (up, down):  0.000E+00 5.221E-04
 
     Magnetic moment per site:
     atom:    1    charge:   12.8283    magn:    1.9948    constr:    0.0000
     atom:    2    charge:   12.8283    magn:    1.9948    constr:    0.0000
     atom:    3    charge:   12.8283    magn:    1.9948    constr:    0.0000
     atom:    4    charge:   12.7754    magn:    2.7580    constr:    0.0000
     atom:    5    charge:    4.1145    magn:    0.0387    constr:    0.0000

     total cpu time spent up to now is       96.3 secs

     total energy              =   -1345.16432372 Ry
     Harris-Foulkes estimate   =   -1345.16768870 Ry
     estimated scf accuracy    <       0.00202392 Ry

     total magnetization       =     8.59 Bohr mag/cell
     absolute magnetization    =     8.97 Bohr mag/cell

     iteration # 10     ecut=   170.00 Ry     beta=0.70
     Davidson diagonalization with overlap
     ethr =  2.93E-06,  avg # of iterations =  1.9

     negative rho (up, down):  0.000E+00 5.182E-04
 
     Magnetic moment per site:
     atom:    1    charge:   12.8269    magn:    2.0774    constr:    0.0000
     atom:    2    charge:   12.8269    magn:    2.0774    constr:    0.0000
     atom:    3    charge:   12.8269    magn:    2.0774    constr:    0.0000
     atom:    4    charge:   12.7764    magn:    2.7416    constr:    0.0000
     atom:    5    charge:    4.1179    magn:    0.0451    constr:    0.0000

     total cpu time spent up to now is      105.3 secs

     total energy              =   -1345.16414557 Ry
     Harris-Foulkes estimate   =   -1345.16575992 Ry
     estimated scf accuracy    <       0.00219987 Ry

     total magnetization       =     9.10 Bohr mag/cell
     absolute magnetization    =     9.44 Bohr mag/cell

     iteration # 11     ecut=   170.00 Ry     beta=0.70
     Davidson diagonalization with overlap
     ethr =  2.93E-06,  avg # of iterations =  1.7

     negative rho (up, down):  0.000E+00 4.997E-04
 
     Magnetic moment per site:
     atom:    1    charge:   12.8337    magn:    1.7210    constr:    0.0000
     atom:    2    charge:   12.8337    magn:    1.7210    constr:    0.0000
     atom:    3    charge:   12.8337    magn:    1.7210    constr:    0.0000
     atom:    4    charge:   12.7763    magn:    2.6962    constr:    0.0000
     atom:    5    charge:    4.1048    magn:    0.0138    constr:    0.0000

     total cpu time spent up to now is      114.0 secs

     total energy              =   -1345.16062815 Ry
     Harris-Foulkes estimate   =   -1345.16462165 Ry
     estimated scf accuracy    <       0.00282645 Ry

     total magnetization       =     9.33 Bohr mag/cell
     absolute magnetization    =     9.66 Bohr mag/cell

     iteration # 12     ecut=   170.00 Ry     beta=0.70
     Davidson diagonalization with overlap
     ethr =  2.93E-06,  avg # of iterations =  3.1

     negative rho (up, down):  0.000E+00 4.802E-04
 
     Magnetic moment per site:
     atom:    1    charge:   12.8409    magn:    1.3199    constr:    0.0000
     atom:    2    charge:   12.8409    magn:    1.3199    constr:    0.0000
     atom:    3    charge:   12.8409    magn:    1.3199    constr:    0.0000
     atom:    4    charge:   12.7755    magn:    2.6498    constr:    0.0000
     atom:    5    charge:    4.0888    magn:   -0.0226    constr:    0.0000

     total cpu time spent up to now is      125.2 secs

     total energy              =   -1345.16147440 Ry
     Harris-Foulkes estimate   =   -1345.16986808 Ry
     estimated scf accuracy    <       0.00119544 Ry

     total magnetization       =     8.19 Bohr mag/cell
     absolute magnetization    =     8.58 Bohr mag/cell

     iteration # 13     ecut=   170.00 Ry     beta=0.70
     Davidson diagonalization with overlap
     ethr =  1.73E-06,  avg # of iterations =  3.4

     negative rho (up, down):  0.000E+00 4.766E-04
 
     Magnetic moment per site:
     atom:    1    charge:   12.8431    magn:    1.2172    constr:    0.0000
     atom:    2    charge:   12.8431    magn:    1.2172    constr:    0.0000
     atom:    3    charge:   12.8431    magn:    1.2172    constr:    0.0000
     atom:    4    charge:   12.7755    magn:    2.6455    constr:    0.0000
     atom:    5    charge:    4.0845    magn:   -0.0327    constr:    0.0000

     total cpu time spent up to now is      138.3 secs

     total energy              =   -1345.16911182 Ry
     Harris-Foulkes estimate   =   -1345.17051403 Ry
     estimated scf accuracy    <       0.00057252 Ry

     total magnetization       =     7.23 Bohr mag/cell
     absolute magnetization    =     7.61 Bohr mag/cell

     iteration # 14     ecut=   170.00 Ry     beta=0.70
     Davidson diagonalization with overlap
     ethr =  8.30E-07,  avg # of iterations =  2.7

     negative rho (up, down):  0.000E+00 4.807E-04
 
     Magnetic moment per site:
     atom:    1    charge:   12.8419    magn:    1.2929    constr:    0.0000
     atom:    2    charge:   12.8419    magn:    1.2929    constr:    0.0000
     atom:    3    charge:   12.8419    magn:    1.2929    constr:    0.0000
     atom:    4    charge:   12.7755    magn:    2.6532    constr:    0.0000
     atom:    5    charge:    4.0864    magn:   -0.0273    constr:    0.0000

     total cpu time spent up to now is      148.4 secs

     total energy              =   -1345.17003336 Ry
     Harris-Foulkes estimate   =   -1345.16976403 Ry
     estimated scf accuracy    <       0.00126107 Ry

     total magnetization       =     6.99 Bohr mag/cell
     absolute magnetization    =     7.35 Bohr mag/cell

     iteration # 15     ecut=   170.00 Ry     beta=0.70
     Davidson diagonalization with overlap
     ethr =  8.30E-07,  avg # of iterations =  2.1

     negative rho (up, down):  0.000E+00 4.820E-04
 
     Magnetic moment per site:
     atom:    1    charge:   12.8423    magn:    1.2931    constr:    0.0000
     atom:    2    charge:   12.8423    magn:    1.2931    constr:    0.0000
     atom:    3    charge:   12.8423    magn:    1.2931    constr:    0.0000
     atom:    4    charge:   12.7761    magn:    2.6621    constr:    0.0000
     atom:    5    charge:    4.0856    magn:   -0.0317    constr:    0.0000

     total cpu time spent up to now is      157.4 secs

     total energy              =   -1345.17048356 Ry
     Harris-Foulkes estimate   =   -1345.17039801 Ry
     estimated scf accuracy    <       0.00074256 Ry

     total magnetization       =     7.17 Bohr mag/cell
     absolute magnetization    =     7.54 Bohr mag/cell

     iteration # 16     ecut=   170.00 Ry     beta=0.70
     Davidson diagonalization with overlap
     ethr =  8.30E-07,  avg # of iterations =  1.0

     negative rho (up, down):  0.000E+00 4.947E-04
 
     Magnetic moment per site:
     atom:    1    charge:   12.8384    magn:    1.4934    constr:    0.0000
     atom:    2    charge:   12.8384    magn:    1.4934    constr:    0.0000
     atom:    3    charge:   12.8384    magn:    1.4934    constr:    0.0000
     atom:    4    charge:   12.7755    magn:    2.6874    constr:    0.0000
     atom:    5    charge:    4.0912    magn:   -0.0193    constr:    0.0000

     total cpu time spent up to now is      165.6 secs

     total energy              =   -1345.16831881 Ry
     Harris-Foulkes estimate   =   -1345.17049783 Ry
     estimated scf accuracy    <       0.00073348 Ry

     total magnetization       =     7.19 Bohr mag/cell
     absolute magnetization    =     7.55 Bohr mag/cell

     iteration # 17     ecut=   170.00 Ry     beta=0.70
     Davidson diagonalization with overlap
     ethr =  8.30E-07,  avg # of iterations =  3.1

     negative rho (up, down):  0.000E+00 4.939E-04
 
     Magnetic moment per site:
     atom:    1    charge:   12.8382    magn:    1.4982    constr:    0.0000
     atom:    2    charge:   12.8382    magn:    1.4982    constr:    0.0000
     atom:    3    charge:   12.8382    magn:    1.4982    constr:    0.0000
     atom:    4    charge:   12.7755    magn:    2.6851    constr:    0.0000
     atom:    5    charge:    4.0916    magn:   -0.0180    constr:    0.0000

     total cpu time spent up to now is      177.4 secs

     total energy              =   -1345.17093275 Ry
     Harris-Foulkes estimate   =   -1345.17093808 Ry
     estimated scf accuracy    <       0.00080013 Ry

     total magnetization       =     7.73 Bohr mag/cell
     absolute magnetization    =     8.07 Bohr mag/cell

     iteration # 18     ecut=   170.00 Ry     beta=0.70
     Davidson diagonalization with overlap
     ethr =  8.30E-07,  avg # of iterations =  1.0

     negative rho (up, down):  0.000E+00 4.871E-04
 
     Magnetic moment per site:
     atom:    1    charge:   12.8359    magn:    1.5511    constr:    0.0000
     atom:    2    charge:   12.8359    magn:    1.5511    constr:    0.0000
     atom:    3    charge:   12.8359    magn:    1.5511    constr:    0.0000
     atom:    4    charge:   12.7751    magn:    2.6673    constr:    0.0000
     atom:    5    charge:    4.0965    magn:   -0.0038    constr:    0.0000

     total cpu time spent up to now is      185.6 secs

     total energy              =   -1345.17066411 Ry
     Harris-Foulkes estimate   =   -1345.17093520 Ry
     estimated scf accuracy    <       0.00069093 Ry

     total magnetization       =     7.74 Bohr mag/cell
     absolute magnetization    =     8.08 Bohr mag/cell

     iteration # 19     ecut=   170.00 Ry     beta=0.70
     Davidson diagonalization with overlap
     ethr =  8.30E-07,  avg # of iterations =  2.0

     negative rho (up, down):  0.000E+00 4.856E-04
 
     Magnetic moment per site:
     atom:    1    charge:   12.8359    magn:    1.5456    constr:    0.0000
     atom:    2    charge:   12.8359    magn:    1.5456    constr:    0.0000
     atom:    3    charge:   12.8359    magn:    1.5456    constr:    0.0000
     atom:    4    charge:   12.7751    magn:    2.6650    constr:    0.0000
     atom:    5    charge:    4.0964    magn:   -0.0036    constr:    0.0000

     total cpu time spent up to now is      194.7 secs

     total energy              =   -1345.17090771 Ry
     Harris-Foulkes estimate   =   -1345.17088636 Ry
     estimated scf accuracy    <       0.00011261 Ry

     total magnetization       =     7.84 Bohr mag/cell
     absolute magnetization    =     8.19 Bohr mag/cell

     iteration # 20     ecut=   170.00 Ry     beta=0.70
     Davidson diagonalization with overlap
     ethr =  1.63E-07,  avg # of iterations =  1.1

     negative rho (up, down):  0.000E+00 4.803E-04
 
     Magnetic moment per site:
     atom:    1    charge:   12.8368    magn:    1.4800    constr:    0.0000
     atom:    2    charge:   12.8368    magn:    1.4800    constr:    0.0000
     atom:    3    charge:   12.8368    magn:    1.4800    constr:    0.0000
     atom:    4    charge:   12.7748    magn:    2.6542    constr:    0.0000
     atom:    5    charge:    4.0949    magn:   -0.0051    constr:    0.0000

     total cpu time spent up to now is      202.9 secs

     total energy              =   -1345.17072798 Ry
     Harris-Foulkes estimate   =   -1345.17091125 Ry
     estimated scf accuracy    <       0.00010203 Ry

     total magnetization       =     7.83 Bohr mag/cell
     absolute magnetization    =     8.18 Bohr mag/cell

     iteration # 21     ecut=   170.00 Ry     beta=0.70
     Davidson diagonalization with overlap
     ethr =  1.48E-07,  avg # of iterations =  3.0

     negative rho (up, down):  0.000E+00 4.798E-04
 
     Magnetic moment per site:
     atom:    1    charge:   12.8367    magn:    1.4818    constr:    0.0000
     atom:    2    charge:   12.8367    magn:    1.4818    constr:    0.0000
     atom:    3    charge:   12.8367    magn:    1.4818    constr:    0.0000
     atom:    4    charge:   12.7749    magn:    2.6538    constr:    0.0000
     atom:    5    charge:    4.0952    magn:   -0.0044    constr:    0.0000

     total cpu time spent up to now is      214.1 secs

     total energy              =   -1345.17100279 Ry
     Harris-Foulkes estimate   =   -1345.17100396 Ry
     estimated scf accuracy    <       0.00000979 Ry

     total magnetization       =     7.67 Bohr mag/cell
     absolute magnetization    =     8.02 Bohr mag/cell

     iteration # 22     ecut=   170.00 Ry     beta=0.70
     Davidson diagonalization with overlap
     ethr =  1.42E-08,  avg # of iterations =  1.3

     negative rho (up, down):  0.000E+00 4.804E-04
 
     Magnetic moment per site:
     atom:    1    charge:   12.8369    magn:    1.4843    constr:    0.0000
     atom:    2    charge:   12.8369    magn:    1.4843    constr:    0.0000
     atom:    3    charge:   12.8369    magn:    1.4843    constr:    0.0000
     atom:    4    charge:   12.7749    magn:    2.6547    constr:    0.0000
     atom:    5    charge:    4.0952    magn:   -0.0044    constr:    0.0000

     total cpu time spent up to now is      222.5 secs

     total energy              =   -1345.17100276 Ry
     Harris-Foulkes estimate   =   -1345.17100334 Ry
     estimated scf accuracy    <       0.00000652 Ry

     total magnetization       =     7.67 Bohr mag/cell
     absolute magnetization    =     8.02 Bohr mag/cell

     iteration # 23     ecut=   170.00 Ry     beta=0.70
     Davidson diagonalization with overlap
     ethr =  9.45E-09,  avg # of iterations =  1.5

     negative rho (up, down):  0.000E+00 4.804E-04
 
     Magnetic moment per site:
     atom:    1    charge:   12.8369    magn:    1.4857    constr:    0.0000
     atom:    2    charge:   12.8369    magn:    1.4857    constr:    0.0000
     atom:    3    charge:   12.8369    magn:    1.4857    constr:    0.0000
     atom:    4    charge:   12.7750    magn:    2.6546    constr:    0.0000
     atom:    5    charge:    4.0953    magn:   -0.0040    constr:    0.0000

     total cpu time spent up to now is      231.0 secs

     total energy              =   -1345.17100372 Ry
     Harris-Foulkes estimate   =   -1345.17100374 Ry
     estimated scf accuracy    <       0.00000043 Ry

     total magnetization       =     7.67 Bohr mag/cell
     absolute magnetization    =     8.02 Bohr mag/cell

     iteration # 24     ecut=   170.00 Ry     beta=0.70
     Davidson diagonalization with overlap
     ethr =  6.16E-10,  avg # of iterations =  3.0

     negative rho (up, down):  0.000E+00 4.804E-04
 
     Magnetic moment per site:
     atom:    1    charge:   12.8369    magn:    1.4863    constr:    0.0000
     atom:    2    charge:   12.8369    magn:    1.4863    constr:    0.0000
     atom:    3    charge:   12.8369    magn:    1.4863    constr:    0.0000
     atom:    4    charge:   12.7750    magn:    2.6544    constr:    0.0000
     atom:    5    charge:    4.0952    magn:   -0.0040    constr:    0.0000

     total cpu time spent up to now is      241.8 secs

     total energy              =   -1345.17100402 Ry
     Harris-Foulkes estimate   =   -1345.17100401 Ry
     estimated scf accuracy    <       0.00000006 Ry

     total magnetization       =     7.68 Bohr mag/cell
     absolute magnetization    =     8.03 Bohr mag/cell

     iteration # 25     ecut=   170.00 Ry     beta=0.70
     Davidson diagonalization with overlap
     ethr =  9.20E-11,  avg # of iterations =  3.0

     negative rho (up, down):  0.000E+00 4.802E-04
 
     Magnetic moment per site:
     atom:    1    charge:   12.8369    magn:    1.4871    constr:    0.0000
     atom:    2    charge:   12.8369    magn:    1.4871    constr:    0.0000
     atom:    3    charge:   12.8369    magn:    1.4871    constr:    0.0000
     atom:    4    charge:   12.7750    magn:    2.6541    constr:    0.0000
     atom:    5    charge:    4.0953    magn:   -0.0037    constr:    0.0000

     total cpu time spent up to now is      252.5 secs

     total energy              =   -1345.17100402 Ry
     Harris-Foulkes estimate   =   -1345.17100411 Ry
     estimated scf accuracy    <       0.00000035 Ry

     total magnetization       =     7.68 Bohr mag/cell
     absolute magnetization    =     8.03 Bohr mag/cell

     iteration # 26     ecut=   170.00 Ry     beta=0.70
     Davidson diagonalization with overlap
     ethr =  9.20E-11,  avg # of iterations =  2.9

     negative rho (up, down):  0.000E+00 4.802E-04
 
     Magnetic moment per site:
     atom:    1    charge:   12.8369    magn:    1.4872    constr:    0.0000
     atom:    2    charge:   12.8369    magn:    1.4872    constr:    0.0000
     atom:    3    charge:   12.8369    magn:    1.4872    constr:    0.0000
     atom:    4    charge:   12.7750    magn:    2.6540    constr:    0.0000
     atom:    5    charge:    4.0953    magn:   -0.0037    constr:    0.0000

     total cpu time spent up to now is      263.4 secs

     End of self-consistent calculation

 ------ SPIN UP ------------


          k = 0.0000 0.0000 0.0000 ( 12533 PWs)   bands (ev):

   -69.9378 -69.2599 -69.2055 -69.2055 -35.9987 -35.9987 -35.9987 -35.6160
   -35.6160 -35.6160 -35.1587 -35.1587 -35.1587 -35.1520 -35.1520 -35.1520
     0.3456  11.4281  13.3304  13.3304  13.3304  13.8397  13.8397  14.1051
    14.1051  14.1051  16.0923  16.0923  16.0923  17.1984  17.1984  17.8462
    17.8462  18.3984  18.3984  18.3984  18.4662  18.4662  18.4662  18.4675
    21.8874  23.7553

          k = 0.0000 0.0000 0.1111 ( 12537 PWs)   bands (ev):

   -69.9377 -69.2585 -69.2070 -69.2055 -35.9977 -35.9977 -35.9973 -35.6148
   -35.6148 -35.6138 -35.1597 -35.1597 -35.1589 -35.1569 -35.1532 -35.1532
     0.4153  11.4855  12.9272  13.1104  13.1104  13.9190  13.9306  14.1574
    14.3442  14.3442  16.0277  16.1463  16.1463  17.2215  17.2573  17.8147
    17.8702  18.3142  18.3142  18.3983  18.3983  18.3986  18.4065  18.4650
    21.9634  23.2363

          k = 0.0000 0.0000 0.2222 ( 12549 PWs)   bands (ev):

   -69.9374 -69.2546 -69.2112 -69.2055 -35.9952 -35.9952 -35.9939 -35.6118
   -35.6118 -35.6078 -35.1695 -35.1625 -35.1625 -35.1597 -35.1561 -35.1561
     0.6003  11.3378  12.5043  12.7673  12.7673  14.0812  14.1355  14.3091
    14.7510  14.7510  15.8450  16.2723  16.2723  17.1945  17.2858  17.7245
    17.7688  17.9545  17.9545  18.2394  18.3989  18.4017  18.4017  18.4623
    22.1774  22.5169

          k = 0.0000 0.0000 0.3333 ( 12553 PWs)   bands (ev):

   -69.9371 -69.2489 -69.2171 -69.2055 -35.9923 -35.9923 -35.9900 -35.6083
   -35.6083 -35.6003 -35.1844 -35.1662 -35.1662 -35.1605 -35.1589 -35.1589
     0.8282  10.6697  12.4974  12.4974  12.8460  14.1977  14.4175  14.5424
    15.1428  15.1428  15.5762  16.3647  16.3647  16.9838  17.3214  17.3616
    17.5818  17.5818  17.6127  18.0173  18.3994  18.4147  18.4147  18.4595
    22.0441  22.5715

          k = 0.0000 0.0000 0.4444 ( 12544 PWs)   bands (ev):

   -69.9369 -69.2435 -69.2226 -69.2054 -35.9905 -35.9905 -35.9875 -35.6060
   -35.6060 -35.5950 -35.1945 -35.1689 -35.1689 -35.1611 -35.1606 -35.1606
     0.9890  10.1829  12.3531  12.3531  13.4007  14.1248  14.6318  14.8080
    15.2874  15.4350  15.4350  16.3334  16.3334  16.7322  16.9439  17.3461
    17.3747  17.3747  17.6401  17.8046  18.3996  18.4299  18.4299  18.4578
    21.9108  22.7893

          k = 0.0000 0.1111 0.1111 ( 12557 PWs)   bands (ev):

   -69.9376 -69.2571 -69.2077 -69.2063 -35.9981 -35.9968 -35.9951 -35.6259
   -35.6136 -35.5995 -35.1700 -35.1606 -35.1602 -35.1570 -35.1545 -35.1482
     0.4851  11.5394  12.6986  12.8569  12.9538  13.9962  14.0040  14.2125
    14.4872  14.5137  16.0041  16.1629  16.1927  17.2489  17.2729  17.7261
    17.7834  18.2264  18.2642  18.3182  18.3245  18.4105  18.4792  18.5427
    22.0241  23.4382

          k = 0.0000 0.1111 0.2222 ( 12548 PWs)   bands (ev):

   -69.9374 -69.2533 -69.2114 -69.2065 -35.9965 -35.9943 -35.9918 -35.6335
   -35.6104 -35.5835 -35.1853 -35.1652 -35.1634 -35.1581 -35.1576 -35.1438
     0.6704  11.3590  12.2605  12.6631  12.6765  14.1573  14.2068  14.3625
    14.8145  14.8591  15.8419  16.2815  16.2890  17.1599  17.3236  17.4383
    17.5844  17.9118  18.1401  18.1984  18.2421  18.3841  18.5585  18.6825
    22.2027  22.6702

          k = 0.0000 0.1111 0.3333 ( 12541 PWs)   bands (ev):

   -69.9371 -69.2477 -69.2172 -69.2066 -35.9937 -35.9916 -35.9892 -35.6372
   -35.6067 -35.5695 -35.2006 -35.1702 -35.1670 -35.1606 -35.1601 -35.1416
     0.8987  10.6614  12.1385  12.4161  12.9459  14.2827  14.4861  14.5915
    15.1752  15.2147  15.5805  16.2918  16.3936  16.9296  17.0978  17.2660
    17.4905  17.5579  17.8566  18.0736  18.1798  18.3778  18.6301  18.6760
    22.2617  22.4504

          k = 0.0000 0.1111 0.4444 ( 12514 PWs)   bands (ev):

   -69.9369 -69.2424 -69.2227 -69.2065 -35.9912 -35.9897 -35.9882 -35.6385
   -35.6043 -35.5611 -35.2103 -35.1734 -35.1696 -35.1623 -35.1615 -35.1407
     1.0600  10.1714  12.0377  12.2807  13.4694  14.2194  14.7012  14.8577
    15.2908  15.4590  15.4817  16.1377  16.3913  16.6632  16.8641  17.2558
    17.3559  17.4657  17.7082  17.8997  18.1436  18.3757  18.6541  18.6761
    22.1430  22.6123

          k = 0.0000 0.2222 0.2222 ( 12528 PWs)   bands (ev):

   -69.9371 -69.2497 -69.2131 -69.2086 -35.9968 -35.9921 -35.9897 -35.6521
   -35.6069 -35.5580 -35.2067 -35.1678 -35.1657 -35.1611 -35.1598 -35.1302
     0.8566  11.2948  11.5676  12.4409  12.7896  14.3578  14.3838  14.5052
    15.0144  15.1104  15.7599  16.2751  16.3630  17.0227  17.0280  17.3106
    17.4588  17.7428  18.0345  18.0887  18.2582  18.3352  18.7088  18.9945
    22.1161  22.9986

          k = 0.0000 0.2222 0.3333 ( 12527 PWs)   bands (ev):

   -69.9369 -69.2444 -69.2177 -69.2095 -35.9954 -35.9896 -35.9890 -35.6645
   -35.6028 -35.5373 -35.2247 -35.1706 -35.1689 -35.1647 -35.1621 -35.1212
     1.0865  10.6285  11.3678  12.2333  13.1803  14.5165  14.6614  14.7164
    15.2789  15.3908  15.5582  16.0664  16.4961  16.7580  16.8087  17.1024
    17.4759  17.6360  17.8031  17.9581  18.1972  18.3523  18.8361  19.0295
    21.9458  22.8235

          k = 0.0000 0.2222 0.4444 ( 12515 PWs)   bands (ev):

   -69.9367 -69.2392 -69.2228 -69.2097 -35.9930 -35.9900 -35.9879 -35.6705
   -35.6001 -35.5256 -35.2351 -35.1725 -35.1715 -35.1666 -35.1637 -35.1168
     1.2492  10.1369  11.3032  12.1147  13.6799  14.4693  14.8911  14.9680
    15.2996  15.4960  15.5998  15.8227  16.5520  16.5537  16.6115  17.0970
    17.2983  17.5289  17.8751  17.8800  18.1781  18.2118  18.9127  18.9632
    21.9129  22.7457

          k = 0.0000 0.3333 0.3333 ( 12518 PWs)   bands (ev):

   -69.9367 -69.2394 -69.2193 -69.2129 -35.9958 -35.9903 -35.9873 -35.6839
   -35.5982 -35.5120 -35.2443 -35.1714 -35.1706 -35.1692 -35.1646 -35.1064
     1.3190  10.5583  10.5959  12.0538  13.5743  14.8386  14.8437  14.8884
    15.4141  15.4604  15.5953  15.7408  16.5553  16.6484  16.6581  16.8991
    17.3285  17.6094  17.7585  17.9056  18.0442  18.5482  19.0046  19.1747
    21.2663  23.3556

          k = 0.0000 0.3333 0.4444 ( 12517 PWs)   bands (ev):

   -69.9366 -69.2343 -69.2229 -69.2145 -35.9947 -35.9925 -35.9858 -35.6939
   -35.5952 -35.4980 -35.2551 -35.1737 -35.1716 -35.1706 -35.1664 -35.0987
     1.4839  10.0901  10.5352  11.9485  14.0225  14.7994  15.0852  15.1285
    15.2955  15.5101  15.5585  15.7468  16.4019  16.4742  16.7780  16.8320
    17.2036  17.4000  17.6211  17.9746  18.1741  18.5813  19.1032  19.1301
    20.9082  23.4488

          k = 0.0000 0.4444 0.4444 ( 12492 PWs)   bands (ev):

   -69.9365 -69.2288 -69.2234 -69.2196 -35.9954 -35.9945 -35.9844 -35.7063
   -35.5919 -35.4828 -35.2661 -35.1751 -35.1749 -35.1692 -35.1683 -35.0891
     1.6509  10.0558  10.0563  11.8498  14.3683  15.0249  15.1861  15.2541
    15.2592  15.4092  15.5749  15.8595  16.3141  16.3959  16.5773  16.9872
    17.1140  17.2350  17.4099  17.8582  18.3842  18.9446  19.1753  19.2133
    20.1308  23.9983

          k = 0.1111 0.1111 0.1111 ( 12563 PWs)   bands (ev):

   -69.9375 -69.2558 -69.2077 -69.2077 -35.9973 -35.9973 -35.9928 -35.6381
   -35.5983 -35.5983 -35.1730 -35.1693 -35.1693 -35.1502 -35.1484 -35.1484
     0.5549  11.5894  12.5637  12.5637  12.8356  14.0720  14.0720  14.3898
    14.3898  14.7343  15.9887  16.2025  16.2025  17.2670  17.2670  17.6645
    17.6645  17.9915  18.1235  18.3446  18.3446  18.4200  18.6412  18.6412
    22.0742  23.5627

          k = 0.1111 0.1111 0.2222 ( 12529 PWs)   bands (ev):

   -69.9373 -69.2521 -69.2116 -69.2076 -35.9963 -35.9956 -35.9896 -35.6503
   -35.5954 -35.5779 -35.1896 -35.1797 -35.1710 -35.1505 -35.1455 -35.1432
     0.7406  11.3711  12.1432  12.2979  12.7589  14.2327  14.2778  14.4627
    14.7623  15.0135  15.8444  16.2849  16.2955  17.1764  17.2943  17.3842
    17.4082  17.7638  17.9272  18.2179  18.3456  18.3565  18.8022  18.8330
    22.2208  22.8349

          k = 0.1111 0.1111 0.3333 ( 12526 PWs)   bands (ev):

   -69.9370 -69.2466 -69.2173 -69.2076 -35.9936 -35.9935 -35.9876 -35.6578
   -35.5921 -35.5605 -35.2059 -35.1883 -35.1721 -35.1523 -35.1462 -35.1391
     0.9695  10.6462  12.0641  12.0769  13.0383  14.3640  14.5550  14.6651
    15.1712  15.2806  15.5910  16.2782  16.3445  16.9172  17.0710  17.1119
    17.4312  17.6066  17.7044  18.0899  18.2504  18.3344  18.6813  18.9926
    22.4189  22.4434

          k = 0.1111 0.1111 0.4444 ( 12521 PWs)   bands (ev):

   -69.9368 -69.2414 -69.2227 -69.2076 -35.9922 -35.9903 -35.9879 -35.6611
   -35.5898 -35.5503 -35.2159 -35.1933 -35.1727 -35.1534 -35.1477 -35.1372
     1.1313  10.1543  11.9341  12.0078  13.5365  14.3075  14.7712  14.9233
    15.3011  15.4552  15.5307  16.0759  16.2783  16.6263  16.9676  17.0974
    17.3342  17.4995  17.7094  17.9304  18.1846  18.3242  18.5241  19.0841
    22.3369  22.5623

          k = 0.1111 0.2222 0.2222 ( 12537 PWs)   bands (ev):

   -69.9371 -69.2485 -69.2131 -69.2098 -35.9968 -35.9946 -35.9872 -35.6705
   -35.5863 -35.5571 -35.2077 -35.1847 -35.1812 -35.1461 -35.1452 -35.1305
     0.9273  11.2971  11.4891  12.0699  12.8956  14.4283  14.4567  14.6313
    14.9392  15.2090  15.7704  16.2699  16.3404  17.0320  17.0919  17.2145
    17.3960  17.5445  17.7224  18.2484  18.2501  18.3219  19.0779  19.1107
    22.1896  23.1065

          k = 0.1111 0.2222 0.3333 ( 12525 PWs)   bands (ev):

   -69.9369 -69.2434 -69.2177 -69.2105 -35.9957 -35.9932 -35.9866 -35.6847
   -35.5818 -35.5358 -35.2250 -35.1934 -35.1834 -35.1470 -35.1438 -35.1213
     1.1581  10.5981  11.3113  11.9148  13.2657  14.5776  14.7283  14.8337
    15.2640  15.3767  15.5839  16.1025  16.3722  16.7655  16.9128  17.0317
    17.4422  17.4784  17.6148  18.1522  18.1979  18.2548  18.9969  19.3339
    22.0571  22.8862

          k = 0.1111 0.2222 0.4444 ( 12540 PWs)   bands (ev):

   -69.9367 -69.2383 -69.2228 -69.2106 -35.9941 -35.9919 -35.9874 -35.6918
   -35.5792 -35.5233 -35.2351 -35.1990 -35.1838 -35.1478 -35.1439 -35.1167
     1.3216  10.1073  11.2412  11.8218  13.7359  14.5293  14.9598  15.0712
    15.3035  15.4788  15.6039  15.8651  16.2991  16.5437  16.8772  16.9678
    17.3026  17.4483  17.7965  18.0504  18.1012  18.2337  18.7431  19.4754
    22.0153  22.8357

          k = 0.1111 0.3333 0.3333 ( 12528 PWs)   bands (ev):

   -69.9367 -69.2387 -69.2193 -69.2137 -35.9965 -35.9932 -35.9866 -35.7048
   -35.5763 -35.5116 -35.2432 -35.1948 -35.1920 -35.1452 -35.1438 -35.1065
     1.3918  10.5243  10.5393  11.7569  13.6361  14.8226  14.9040  15.0688
    15.3299  15.4722  15.5697  15.9051  16.3668  16.6364  16.7529  16.9587
    17.3280  17.3355  17.7955  18.0116  18.1091  18.3398  19.2237  19.4681
    21.3619  23.2564

          k = 0.1111 0.3333 0.4444 ( 12508 PWs)   bands (ev):

   -69.9366 -69.2337 -69.2229 -69.2151 -35.9959 -35.9941 -35.9870 -35.7154
   -35.5733 -35.4975 -35.2535 -35.1992 -35.1933 -35.1450 -35.1437 -35.0987
     1.5578  10.0488  10.4833  11.6624  14.0411  14.7951  15.0912  15.2865
    15.2945  15.5095  15.5625  15.9177  16.2898  16.4464  16.7284  16.9211
    17.2030  17.3110  17.8568  17.9766  18.0308  18.4892  19.0172  19.6595
    20.9541  23.3826

          k = 0.1111 0.4444 0.4444 ( 12499 PWs)   bands (ev):

   -69.9365 -69.2285 -69.2234 -69.2199 -35.9966 -35.9959 -35.9868 -35.7280
   -35.5701 -35.4827 -35.2637 -35.1990 -35.1986 -35.1440 -35.1437 -35.0891
     1.7261  10.0074  10.0094  11.5676  14.3233  14.9818  15.0454  15.2047
    15.5462  15.5521  15.6301  16.0538  16.2560  16.3620  16.5049  16.9239
    17.1742  17.2217  17.6748  17.9349  18.0857  18.8781  19.1706  19.7003
    20.1200  23.7364

          k = 0.2222 0.2222 0.2222 ( 12524 PWs)   bands (ev):

   -69.9369 -69.2453 -69.2131 -69.2131 -35.9967 -35.9967 -35.9855 -35.6961
   -35.5548 -35.5548 -35.2152 -35.1979 -35.1979 -35.1330 -35.1330 -35.1289
     1.1157  11.2709  11.3112  11.3112  13.1134  14.6225  14.6225  14.9421
    14.9421  15.3043  15.7318  16.2796  16.2796  16.9694  16.9694  17.2825
    17.2825  17.2925  17.4273  18.2288  18.2288  18.3819  19.4148  19.4148
    22.2836  23.0623

          k = 0.2222 0.2222 0.3333 ( 12517 PWs)   bands (ev):

   -69.9367 -69.2406 -69.2180 -69.2131 -35.9966 -35.9966 -35.9862 -35.7153
   -35.5521 -35.5288 -35.2293 -35.2108 -35.2006 -35.1330 -35.1252 -35.1194
     1.3491  10.5169  11.1354  11.2355  13.4789  14.7339  14.8921  15.1008
    15.2919  15.2958  15.6690  16.1480  16.2342  16.7245  16.7864  17.1818
    17.1847  17.3775  17.5208  18.1619  18.2201  18.3165  19.2420  19.7642
    22.2488  22.6938

          k = 0.2222 0.2222 0.4444 ( 12513 PWs)   bands (ev):

   -69.9366 -69.2358 -69.2228 -69.2131 -35.9966 -35.9949 -35.9883 -35.7252
   -35.5503 -35.5142 -35.2382 -35.2179 -35.2008 -35.1335 -35.1218 -35.1140
     1.5149  10.0325  11.0317  11.1936  13.8848  14.6647  15.1475  15.1482
    15.4032  15.4926  15.6118  15.9868  16.1837  16.4977  16.7716  17.0065
    17.1469  17.5602  17.7233  18.0969  18.1967  18.2426  18.8110  20.0145
    22.2603  22.3758

          k = 0.2222 0.3333 0.3333 ( 12520 PWs)   bands (ev):

   -69.9366 -69.2364 -69.2193 -69.2159 -35.9983 -35.9975 -35.9880 -35.7391
   -35.5395 -35.5104 -35.2411 -35.2161 -35.2127 -35.1241 -35.1227 -35.1066
     1.5865  10.4047  10.4372  11.0622  13.7834  14.8929  14.9974  15.1538
    15.4039  15.4573  15.8017  16.1026  16.2133  16.6140  16.6344  16.9619
    17.3041  17.3492  17.6462  18.1532  18.2326  18.2823  19.4027  19.9185
    21.6314  22.6893

          k = 0.2222 0.3333 0.4444 ( 12507 PWs)   bands (ev):

   -69.9365 -69.2320 -69.2229 -69.2168 -35.9987 -35.9976 -35.9905 -35.7518
   -35.5363 -35.4961 -35.2495 -35.2220 -35.2140 -35.1237 -35.1187 -35.0988
     1.7558   9.9479  10.3578  10.9828  14.0724  14.8049  15.0273  15.2238
    15.4902  15.7149  15.8752  16.1620  16.1878  16.4235  16.6204  16.8038
    17.2861  17.5123  17.7756  18.1065  18.1698  18.3884  19.0268  20.2484
    21.0541  22.6441

          k = 0.2222 0.4444 0.4444 ( 12518 PWs)   bands (ev):

   -69.9364 -69.2277 -69.2234 -69.2207 -35.9996 -35.9993 -35.9926 -35.7662
   -35.5318 -35.4825 -35.2578 -35.2217 -35.2210 -35.1188 -35.1186 -35.0891
     1.9280   9.8898   9.8971  10.8924  14.2097  14.8980  14.9498  15.0891
    15.6725  16.0016  16.1138  16.2022  16.2635  16.3990  16.5123  16.6595
    17.4069  17.4418  17.8215  17.9831  18.1016  18.7647  19.1471  19.9410
    20.4398  22.9022

          k = 0.3333 0.3333 0.3333 ( 12505 PWs)   bands (ev):

   -69.9365 -69.2331 -69.2193 -69.2193 -36.0004 -36.0004 -35.9916 -35.7668
   -35.5089 -35.5089 -35.2423 -35.2279 -35.2279 -35.1091 -35.1091 -35.1046
     1.8295  10.2648  10.2648  10.4019  13.9571  14.9421  14.9946  14.9946
    15.6695  15.6695  16.1354  16.2180  16.2180  16.5754  16.5754  16.7367
    17.4736  17.5587  17.5587  18.2042  18.2042  18.3424  19.7539  19.7539
    21.9452  21.9452

          k = 0.3333 0.3333 0.4444 ( 12520 PWs)   bands (ev):

   -69.9364 -69.2295 -69.2230 -69.2193 -36.0018 -36.0010 -35.9953 -35.7818
   -35.5080 -35.4920 -35.2473 -35.2360 -35.2293 -35.1079 -35.1013 -35.0974
     2.0036   9.8387  10.1795  10.3015  14.0869  14.8130  14.9324  15.0660
    15.7100  15.9688  16.2184  16.2971  16.3762  16.5447  16.5851  16.7068
    17.4821  17.6856  17.7213  18.2226  18.2880  18.3199  19.0865  20.2694
    21.0594  21.9463

          k = 0.3333 0.4444 0.4444 ( 12510 PWs)   bands (ev):

   -69.9364 -69.2264 -69.2233 -69.2219 -36.0030 -36.0030 -35.9993 -35.7982
   -35.4998 -35.4823 -35.2512 -35.2378 -35.2371 -35.0997 -35.0994 -35.0891
     2.1818   9.7651   9.7773  10.1657  14.0872  14.8237  14.8780  14.9433
    15.8651  16.0634  16.2511  16.2630  16.4465  16.8099  16.8159  16.9892
    17.6312  17.6607  17.7496  18.2081  18.2605  18.5490  19.0742  19.6186
    20.9369  21.9309

          k = 0.4444 0.4444 0.4444 ( 12559 PWs)   bands (ev):

   -69.9364 -69.2250 -69.2233 -69.2233 -36.0052 -36.0052 -36.0039 -35.8159
   -35.4821 -35.4821 -35.2477 -35.2455 -35.2455 -35.0894 -35.0894 -35.0887
     2.3652   9.6882   9.6882   9.7165  14.0124  14.7929  14.8334  14.8334
    16.0119  16.0119  16.2630  16.2630  16.3294  17.4466  17.4466  17.4748
    17.7442  17.7442  17.9041  18.3149  18.3149  18.3175  18.9398  18.9398
    21.2442  21.2442

 ------ SPIN DOWN ----------


          k = 0.0000 0.0000 0.0000 ( 12533 PWs)   bands (ev):

   -67.3636 -67.3028 -67.3028 -66.5338 -33.9866 -33.9866 -33.9866 -33.2305
   -33.2305 -33.2305 -33.1918 -33.1918 -33.1918 -32.6390 -32.6390 -32.6390
     0.4463  11.7277  13.3947  13.3947  13.3947  15.2108  15.2108  15.5336
    15.5336  15.5336  18.0411  18.0411  18.0411  18.7047  18.7047  20.2816
    20.2816  20.2816  20.4080  20.4080  20.5094  20.8706  20.8706  20.8706
    23.0635  23.9614

          k = 0.0000 0.0000 0.1111 ( 12537 PWs)   bands (ev):

   -67.3619 -67.3044 -67.3028 -66.5339 -33.9854 -33.9854 -33.9849 -33.2309
   -33.2295 -33.2295 -33.1929 -33.1929 -33.1921 -32.6419 -32.6402 -32.6402
     0.5152  11.7586  13.0943  13.2812  13.2812  15.2706  15.3100  15.5908
    15.6867  15.6867  17.9634  18.1035  18.1035  18.7112  18.8015  20.2359
    20.2359  20.2818  20.3476  20.3644  20.4465  20.6202  20.6202  20.8707
    23.1049  23.6079

          k = 0.0000 0.0000 0.2222 ( 12549 PWs)   bands (ev):

   -67.3572 -67.3089 -67.3028 -66.5341 -33.9822 -33.9822 -33.9804 -33.2318
   -33.2269 -33.2269 -33.1957 -33.1957 -33.1930 -32.6492 -32.6432 -32.6432
     0.6980  11.5210  12.8547  13.0419  13.0419  15.3357  15.5857  15.7545
    16.0360  16.0360  17.7480  18.2772  18.2772  18.7206  18.8139  19.9887
    19.9887  20.1242  20.1429  20.2201  20.2201  20.2823  20.3765  20.8708
    23.0983  23.2966

          k = 0.0000 0.0000 0.3333 ( 12553 PWs)   bands (ev):

   -67.3503 -67.3155 -67.3027 -66.5343 -33.9787 -33.9787 -33.9754 -33.2329
   -33.2240 -33.2240 -33.1988 -33.1988 -33.1940 -32.6576 -32.6467 -32.6467
     0.9224  10.8626  12.8210  12.8210  13.2718  15.2193  15.9596  15.9955
    16.4088  16.4088  17.4486  18.5181  18.5181  18.5893  18.7027  19.4684
    19.4684  19.7686  19.8264  20.0526  20.0526  20.2828  20.3215  20.8711
    22.9357  23.5439

          k = 0.0000 0.0000 0.4444 ( 12544 PWs)   bands (ev):

   -67.3438 -67.3219 -67.3027 -66.5345 -33.9763 -33.9763 -33.9720 -33.2337
   -33.2222 -33.2222 -33.2008 -33.2008 -33.1946 -32.6632 -32.6491 -32.6491
     1.0803  10.3966  12.6955  12.6955  13.9347  14.7948  16.2270  16.2616
    16.6609  16.6609  17.1794  18.4156  18.6441  18.7636  18.7636  19.0531
    19.0531  19.4978  19.6039  19.9434  19.9434  20.2832  20.2854  20.8712
    22.9017  23.7478

          k = 0.0000 0.1111 0.1111 ( 12557 PWs)   bands (ev):

   -67.3603 -67.3051 -67.3036 -66.5339 -33.9981 -33.9842 -33.9694 -33.2349
   -33.2284 -33.2276 -33.1975 -33.1940 -33.1865 -32.6456 -32.6414 -32.6398
     0.5842  11.7909  12.8621  13.1406  13.1802  15.3467  15.3812  15.6567
    15.8146  15.8155  17.9271  18.1262  18.1578  18.7523  18.7968  20.1518
    20.1885  20.2134  20.2572  20.3571  20.4303  20.5233  20.5311  20.7749
    23.1398  23.8586

          k = 0.0000 0.1111 0.2222 ( 12548 PWs)   bands (ev):

   -67.3556 -67.3092 -67.3039 -66.5341 -34.0074 -33.9811 -33.9532 -33.2420
   -33.2258 -33.2253 -33.2008 -33.1968 -33.1814 -32.6520 -32.6445 -32.6420
     0.7671  11.5462  12.5127  12.9611  13.0784  15.4218  15.6386  15.8236
    16.1193  16.1287  17.7348  18.2827  18.2971  18.6947  18.7300  19.8200
    19.9569  19.9615  20.0875  20.2026  20.3612  20.3779  20.4818  20.7402
    23.2072  23.4014

          k = 0.0000 0.1111 0.3333 ( 12541 PWs)   bands (ev):

   -67.3490 -67.3156 -67.3039 -66.5344 -34.0131 -33.9775 -33.9397 -33.2491
   -33.2229 -33.2228 -33.2030 -33.2000 -33.1780 -32.6579 -32.6480 -32.6457
     0.9918  10.8684  12.4341  12.7536  13.4032  15.3132  16.0058  16.0654
    16.4578  16.4684  17.4442  18.3444  18.4938  18.5276  18.6583  19.4837
    19.5001  19.7220  19.8937  19.9374  20.2479  20.3629  20.3844  20.7410
    23.1204  23.4631

          k = 0.0000 0.1111 0.4444 ( 12514 PWs)   bands (ev):

   -67.3425 -67.3218 -67.3039 -66.5345 -34.0156 -33.9752 -33.9319 -33.2534
   -33.2211 -33.2209 -33.2044 -33.2020 -33.1766 -32.6614 -32.6504 -32.6486
     1.1500  10.3980  12.3630  12.6343  14.0098  14.9059  16.3027  16.3041
    16.6882  16.7031  17.1802  18.1821  18.3308  18.7855  18.7916  19.0850
    19.3045  19.5824  19.6172  19.8228  20.1430  20.3059  20.3646  20.7426
    23.1033  23.5993

          k = 0.0000 0.2222 0.2222 ( 12528 PWs)   bands (ev):

   -67.3514 -67.3110 -67.3062 -66.5343 -34.0288 -33.9781 -33.9266 -33.2581
   -33.2255 -33.2229 -33.2046 -33.1996 -33.1669 -32.6558 -32.6477 -32.6419
     0.9506  11.4993  11.8224  12.7779  13.2517  15.6151  15.7742  15.9974
    16.3298  16.3637  17.6310  18.2674  18.3695  18.5062  18.5787  19.6837
    19.7681  19.8181  19.9189  20.0933  20.4436  20.4475  20.5156  20.6848
    23.1192  23.9535

          k = 0.0000 0.2222 0.3333 ( 12527 PWs)   bands (ev):

   -67.3452 -67.3160 -67.3071 -66.5345 -34.0438 -33.9746 -33.9056 -33.2718
   -33.2253 -33.2197 -33.2088 -33.2028 -33.1557 -32.6576 -32.6513 -32.6443
     1.1763  10.8720  11.6512  12.5969  13.6635  15.5698  16.0780  16.2382
    16.5924  16.6217  17.4053  17.9797  18.2659  18.5838  18.5887  19.5184
    19.5368  19.7119  19.7451  19.8915  20.4106  20.4111  20.4839  20.6812
    23.0115  23.7346

          k = 0.0000 0.2222 0.4444 ( 12515 PWs)   bands (ev):

   -67.3391 -67.3217 -67.3073 -66.5346 -34.0515 -33.9724 -33.8939 -33.2794
   -33.2241 -33.2177 -33.2126 -33.2048 -33.1498 -32.6569 -32.6538 -32.6476
     1.3355  10.3962  11.6142  12.4903  14.2183  15.2001  16.3419  16.4883
    16.7634  16.8471  17.1758  17.7080  18.1343  18.6117  18.8660  19.1780
    19.3755  19.6217  19.6726  19.8138  20.3953  20.4157  20.4753  20.5143
    23.0488  23.6574

          k = 0.0000 0.3333 0.3333 ( 12518 PWs)   bands (ev):

   -67.3396 -67.3176 -67.3108 -66.5346 -34.0662 -33.9713 -33.8793 -33.2897
   -33.2277 -33.2162 -33.2159 -33.2060 -33.1380 -32.6553 -32.6551 -32.6446
     1.4038  10.8321  10.8970  12.4375  14.0755  15.8684  16.0260  16.4608
    16.7897  16.7991  17.2931  17.6317  18.0636  18.5078  18.7329  19.3589
    19.5306  19.5346  19.7313  19.9250  20.1459  20.5073  20.5137  20.8575
    22.5355  24.3135

          k = 0.0000 0.3333 0.4444 ( 12517 PWs)   bands (ev):

   -67.3338 -67.3216 -67.3125 -66.5347 -34.0779 -33.9692 -33.8650 -33.2994
   -33.2279 -33.2220 -33.2139 -33.2081 -33.1284 -32.6576 -32.6519 -32.6466
     1.5647  10.3853  10.8478  12.3420  14.5569  15.6033  16.2204  16.6897
    16.8595  17.0665  17.1527  17.3660  17.9799  18.4025  18.9744  19.2077
    19.2666  19.5028  19.5848  20.0348  20.0961  20.5257  20.5913  20.7762
    22.3309  24.3169

          k = 0.0000 0.4444 0.4444 ( 12492 PWs)   bands (ev):

   -67.3278 -67.3220 -67.3180 -66.5348 -34.0919 -33.9671 -33.8493 -33.3100
   -33.2301 -33.2285 -33.2114 -33.2102 -33.1168 -32.6602 -32.6481 -32.6465
     1.7269  10.3718  10.3758  12.2522  14.9226  15.9622  15.9823  16.8461
    16.9117  16.9142  17.1166  17.5507  17.9120  18.1333  19.0470  19.0620
    19.3044  19.4722  19.5336  19.7152  20.2628  20.5384  20.7785  20.8776
    21.8696  24.8267

          k = 0.1111 0.1111 0.1111 ( 12563 PWs)   bands (ev):

   -67.3587 -67.3051 -67.3051 -66.5340 -34.0114 -33.9683 -33.9683 -33.2358
   -33.2306 -33.2306 -33.1954 -33.1954 -33.1827 -32.6494 -32.6407 -32.6407
     0.6532  11.8238  12.7772  12.7772  13.1935  15.4348  15.4348  15.7979
    15.7979  15.9799  17.8993  18.1707  18.1707  18.7706  18.7706  20.0057
    20.1166  20.1421  20.1421  20.4005  20.4005  20.4021  20.6832  20.6832
    23.1811  24.0628

          k = 0.1111 0.1111 0.2222 ( 12529 PWs)   bands (ev):

   -67.3542 -67.3094 -67.3051 -66.5342 -34.0257 -33.9655 -33.9475 -33.2433
   -33.2378 -33.2285 -33.1953 -33.1926 -33.1769 -32.6551 -32.6430 -32.6425
     0.8363  11.5662  12.4036  12.5862  13.2015  15.5071  15.6957  15.9214
    16.1319  16.2323  17.7285  18.2746  18.2895  18.6801  18.6804  19.6474
    19.7883  19.9248  19.9926  20.2988  20.4492  20.4713  20.5380  20.7273
    23.2585  23.5525

          k = 0.1111 0.1111 0.3333 ( 12526 PWs)   bands (ev):

   -67.3477 -67.3157 -67.3051 -66.5344 -34.0354 -33.9623 -33.9304 -33.2514
   -33.2455 -33.2239 -33.1936 -33.1923 -33.1727 -32.6591 -32.6470 -32.6456
     1.0614  10.8681  12.3699  12.3990  13.5155  15.4059  16.0631  16.1448
    16.4746  16.5168  17.4470  18.2331  18.3237  18.6235  18.6585  19.2550
    19.5475  19.7155  19.8095  20.1300  20.3506  20.3763  20.5339  20.6671
    23.2545  23.4789

          k = 0.1111 0.1111 0.4444 ( 12521 PWs)   bands (ev):

   -67.3414 -67.3218 -67.3050 -66.5345 -34.0403 -33.9601 -33.9206 -33.2562
   -33.2501 -33.2198 -33.1937 -33.1921 -33.1705 -32.6600 -32.6517 -32.6474
     1.2200  10.3942  12.2893  12.3294  14.0813  15.0141  16.3635  16.3822
    16.6154  16.8202  17.1839  17.9897  18.2137  18.7872  18.8092  19.0183
    19.2799  19.6464  19.6872  20.0050  20.1066  20.3068  20.5543  20.6460
    23.2678  23.5689

          k = 0.1111 0.2222 0.2222 ( 12537 PWs)   bands (ev):

   -67.3501 -67.3110 -67.3074 -66.5343 -34.0487 -33.9566 -33.9259 -33.2587
   -33.2400 -33.2388 -33.1904 -33.1874 -33.1655 -32.6591 -32.6448 -32.6421
     1.0202  11.5142  11.7664  12.3870  13.3761  15.7045  15.8410  16.1110
    16.3313  16.3849  17.6416  18.2108  18.2628  18.5892  18.6017  19.4316
    19.5365  19.8334  19.8427  20.2438  20.4422  20.4844  20.7325  20.8285
    23.2303  23.9475

          k = 0.1111 0.2222 0.3333 ( 12525 PWs)   bands (ev):

   -67.3441 -67.3160 -67.3081 -66.5345 -34.0657 -33.9526 -33.9042 -33.2732
   -33.2496 -33.2378 -33.1875 -33.1851 -33.1548 -32.6600 -32.6478 -32.6440
     1.2466  10.8576  11.6117  12.2610  13.7621  15.6579  16.1555  16.3304
    16.5271  16.6653  17.4262  17.9406  18.1449  18.6006  18.6607  19.2782
    19.3045  19.7069  19.8063  20.0896  20.3803  20.4334  20.7263  20.8362
    23.1213  23.7699

          k = 0.1111 0.2222 0.4444 ( 12540 PWs)   bands (ev):

   -67.3381 -67.3217 -67.3083 -66.5346 -34.0745 -33.9504 -33.8918 -33.2813
   -33.2555 -33.2366 -33.1858 -33.1850 -33.1490 -32.6573 -32.6523 -32.6460
     1.4064  10.3802  11.5687  12.1836  14.2832  15.2977  16.4054  16.5686
    16.6593  16.9776  17.1956  17.6110  18.0538  18.6267  18.8410  19.0777
    19.1793  19.7030  19.8060  19.9540  20.3195  20.3830  20.4880  20.8719
    23.1471  23.7265

          k = 0.1111 0.3333 0.3333 ( 12528 PWs)   bands (ev):

   -67.3387 -67.3176 -67.3116 -66.5346 -34.0888 -33.9482 -33.8790 -33.2920
   -33.2524 -33.2489 -33.1845 -33.1827 -33.1377 -32.6590 -32.6490 -32.6439
     1.4751  10.8125  10.8548  12.1297  14.1548  15.9505  16.0733  16.5539
    16.6812  16.8732  17.3269  17.6480  17.9843  18.5072  18.7405  19.0988
    19.3924  19.5426  19.9239  19.9249  20.2617  20.4111  20.8984  20.9779
    22.5960  24.2111

          k = 0.1111 0.3333 0.4444 ( 12508 PWs)   bands (ev):

   -67.3331 -67.3216 -67.3131 -66.5347 -34.1011 -33.9459 -33.8646 -33.3021
   -33.2582 -33.2512 -33.1830 -33.1822 -33.1283 -32.6571 -32.6494 -32.6452
     1.6368  10.3569  10.8092  12.0487  14.6044  15.6786  16.2442  16.7773
    16.8628  17.0624  17.1775  17.4110  17.9284  18.4037  18.8156  18.9913
    19.3559  19.5850  19.7344  19.9965  20.1409  20.5094  20.7320  21.0729
    22.3519  24.2448

          k = 0.1111 0.4444 0.4444 ( 12499 PWs)   bands (ev):

   -67.3275 -67.3220 -67.3183 -66.5348 -34.1154 -33.9436 -33.8493 -33.3132
   -33.2603 -33.2596 -33.1817 -33.1814 -33.1168 -32.6576 -32.6465 -32.6452
     1.8001  10.3373  10.3388  11.9662  14.9333  15.9996  16.0393  16.8469
    16.9394  17.0015  17.1565  17.6200  17.8811  18.1382  18.6868  19.0342
    19.4390  19.5800  19.6275  19.9198  19.9909  20.7271  20.8654  21.1311
    21.8234  24.5855

          k = 0.2222 0.2222 0.2222 ( 12524 PWs)   bands (ev):

   -67.3464 -67.3109 -67.3109 -66.5345 -34.0775 -33.9239 -33.9239 -33.2611
   -33.2611 -33.2584 -33.1744 -33.1744 -33.1596 -32.6621 -32.6425 -32.6425
     1.2052  11.5057  11.6333  11.6333  13.6118  15.9658  15.9658  16.3811
    16.3961  16.3961  17.6134  18.0860  18.0860  18.6336  18.6336  19.2216
    19.2256  19.7409  19.7409  20.3382  20.4370  20.4370  21.0801  21.0801
    23.3973  23.8155

          k = 0.2222 0.2222 0.3333 ( 12517 PWs)   bands (ev):

   -67.3409 -67.3162 -67.3109 -66.5346 -34.0995 -33.9216 -33.8972 -33.2781
   -33.2758 -33.2613 -33.1694 -33.1639 -33.1500 -32.6611 -32.6440 -32.6429
     1.4336  10.8144  11.4942  11.5404  14.0011  15.8918  16.3474  16.3801
    16.5660  16.7439  17.4590  17.8193  17.9648  18.6057  18.6850  18.9745
    19.2132  19.6809  19.7894  20.2384  20.3908  20.4169  20.9557  21.2854
    23.3373  23.6139

          k = 0.2222 0.2222 0.4444 ( 12513 PWs)   bands (ev):

   -67.3354 -67.3216 -67.3109 -66.5347 -34.1112 -33.9201 -33.8825 -33.2876
   -33.2845 -33.2623 -33.1676 -33.1591 -33.1440 -32.6565 -32.6488 -32.6433
     1.5952  10.3373  11.4093  11.5221  14.4639  15.5469  16.4098  16.6964
    16.7871  17.0773  17.2510  17.4546  17.9244  18.6153  18.7202  18.7987
    19.2517  19.7833  19.8995  20.1210  20.3447  20.3567  20.5389  21.3917
    23.3746  23.4640

          k = 0.2222 0.3333 0.3333 ( 12520 PWs)   bands (ev):

   -67.3362 -67.3176 -67.3140 -66.5347 -34.1263 -33.9092 -33.8781 -33.2980
   -33.2824 -33.2785 -33.1584 -33.1566 -33.1368 -32.6585 -32.6431 -32.6421
     1.6651  10.7518  10.7599  11.4198  14.3574  16.1251  16.1726  16.5860
    16.7956  16.9207  17.4226  17.6827  17.8430  18.5146  18.6475  18.7609
    19.3525  19.6421  19.8904  20.1762  20.3802  20.3973  21.0668  21.4859
    22.7513  23.7079

          k = 0.2222 0.3333 0.4444 ( 12507 PWs)   bands (ev):

   -67.3313 -67.3215 -67.3149 -66.5347 -34.1408 -33.9063 -33.8634 -33.3091
   -33.2911 -33.2829 -33.1561 -33.1519 -33.1278 -32.6539 -32.6449 -32.6418
     1.8294  10.2853  10.7138  11.3580  14.7232  15.8568  16.2687  16.8384
    17.0107  17.0610  17.3087  17.5571  17.8459  18.4189  18.5337  18.7259
    19.4679  19.7472  19.9625  20.0611  20.3209  20.4542  20.7320  21.6894
    22.3541  23.6880

          k = 0.2222 0.4444 0.4444 ( 12518 PWs)   bands (ev):

   -67.3266 -67.3219 -67.3191 -66.5348 -34.1568 -33.9024 -33.8491 -33.3211
   -33.2949 -33.2942 -33.1506 -33.1504 -33.1167 -32.6510 -32.6424 -32.6420
     1.9961  10.2479  10.2520  11.2850  14.9445  16.0837  16.1700  16.6779
    17.2034  17.2400  17.3384  17.7453  17.8433  18.1948  18.3674  18.7274
    19.6941  19.7349  19.8891  19.9598  20.2297  20.6464  20.8149  21.6134
    21.8563  23.8903

          k = 0.3333 0.3333 0.3333 ( 12505 PWs)   bands (ev):

   -67.3326 -67.3176 -67.3176 -66.5347 -34.1569 -33.8770 -33.8770 -33.3057
   -33.3057 -33.2998 -33.1403 -33.1403 -33.1332 -32.6541 -32.6401 -32.6401
     1.9012  10.6410  10.6410  10.7351  14.6293  16.0839  16.4466  16.4466
    17.0958  17.0958  17.5103  17.7472  17.7472  18.4506  18.5255  18.5255
    19.5064  19.8515  19.8515  20.2897  20.3760  20.3760  21.3674  21.3674
    22.9689  22.9689

          k = 0.3333 0.3333 0.4444 ( 12520 PWs)   bands (ev):

   -67.3285 -67.3215 -67.3175 -66.5347 -34.1736 -33.8763 -33.8593 -33.3184
   -33.3144 -33.3074 -33.1376 -33.1312 -33.1255 -32.6486 -32.6407 -32.6387
     2.0694  10.2051  10.5719  10.6655  14.8543  16.0353  16.2876  16.6328
    17.3156  17.3327  17.5109  17.7316  17.8243  18.2899  18.4213  18.5172
    19.6668  19.9043  20.0203  20.2101  20.3906  20.4081  20.7759  21.7175
    22.3421  23.1529

          k = 0.3333 0.4444 0.4444 ( 12510 PWs)   bands (ev):

   -67.3253 -67.3219 -67.3203 -66.5347 -34.1916 -33.8678 -33.8489 -33.3299
   -33.3214 -33.3205 -33.1284 -33.1280 -33.1165 -32.6434 -32.6383 -32.6381
     2.2410  10.1491  10.1586  10.5577  14.9332  16.1687  16.2822  16.4795
    17.5928  17.5997  17.6673  17.8602  17.8666  18.1335  18.3000  18.4924
    19.8639  19.9512  20.0418  20.1415  20.4197  20.4853  20.7228  21.2311
    22.3660  23.1195

          k = 0.4444 0.4444 0.4444 ( 12559 PWs)   bands (ev):

   -67.3237 -67.3219 -67.3219 -66.5347 -34.2107 -33.8488 -33.8488 -33.3356
   -33.3356 -33.3346 -33.1169 -33.1169 -33.1160 -32.6379 -32.6358 -32.6358
     2.4167  10.0869  10.0869  10.1094  14.9151  16.2387  16.3300  16.3300
    17.8950  17.8950  17.9812  17.9812  17.9855  18.0024  18.3664  18.3664
    20.0132  20.0711  20.0711  20.2605  20.3447  20.3447  20.7348  20.7348
    22.6687  22.6687

     the Fermi energy is    18.7320 ev

!    total energy              =   -1345.17100411 Ry
     Harris-Foulkes estimate   =   -1345.17100411 Ry
     estimated scf accuracy    <          6.3E-09 Ry

     total all-electron energy =    -10291.772639 Ry

     The total energy is the sum of the following terms:

     one-electron contribution =    -446.73737572 Ry
     hartree contribution      =     269.20223917 Ry
     xc contribution           =    -117.08722269 Ry
     ewald contribution        =    -711.61403732 Ry
     one-center paw contrib.   =    -338.93469760 Ry
     smearing contrib. (-TS)   =       0.00009005 Ry

     total magnetization       =     7.68 Bohr mag/cell
     absolute magnetization    =     8.03 Bohr mag/cell

     convergence has been achieved in  26 iterations

     Forces acting on atoms (Ry/au):


     negative rho (up, down):  0.000E+00 4.802E-04
     atom    1 type  1   force =     0.00000000    0.00000000    0.00000000
     atom    2 type  1   force =     0.00000000    0.00000000    0.00000000
     atom    3 type  1   force =     0.00000000    0.00000000    0.00000000
     atom    4 type  1   force =     0.00000000    0.00000000    0.00000000
     atom    5 type  2   force =     0.00000000    0.00000000    0.00000000

     Total force =     0.000000     Total SCF correction =     0.000000


     entering subroutine stress ...


     negative rho (up, down):  0.000E+00 4.802E-04
          total   stress  (Ry/bohr**3)                   (kbar)     P=  149.76
   0.00101803   0.00000000   0.00000000        149.76      0.00      0.00
   0.00000000   0.00101803   0.00000000          0.00    149.76      0.00
   0.00000000   0.00000000   0.00101803          0.00      0.00    149.76


     Writing output data file config.save
 
     init_run     :      3.60s CPU      3.81s WALL (       1 calls)
     electrons    :    254.30s CPU    259.17s WALL (       1 calls)
     forces       :      1.23s CPU      1.24s WALL (       1 calls)
     stress       :      4.55s CPU      4.58s WALL (       1 calls)

     Called by init_run:
     wfcinit      :      2.92s CPU      3.07s WALL (       1 calls)
     potinit      :      0.38s CPU      0.40s WALL (       1 calls)

     Called by electrons:
     c_bands      :    216.60s CPU    220.50s WALL (      26 calls)
     sum_band     :     27.61s CPU     28.09s WALL (      26 calls)
     v_of_rho     :      0.50s CPU      0.53s WALL (      27 calls)
     newd         :      0.65s CPU      0.67s WALL (      27 calls)
     mix_rho      :      0.19s CPU      0.19s WALL (      26 calls)

     Called by c_bands:
     init_us_2    :      7.13s CPU      7.28s WALL (    3850 calls)
     cegterg      :    191.32s CPU    194.84s WALL (    1820 calls)

     Called by sum_band:
     sum_band:bec :      0.06s CPU      0.06s WALL (    1820 calls)
     addusdens    :      1.65s CPU      1.67s WALL (      26 calls)

     Called by *egterg:
     h_psi        :    101.41s CPU    103.68s WALL (    6303 calls)
     s_psi        :     10.86s CPU     11.09s WALL (    6303 calls)
     g_psi        :      1.97s CPU      2.00s WALL (    4413 calls)
     cdiaghg      :     17.66s CPU     17.87s WALL (    6233 calls)

     Called by h_psi:
     add_vuspsi   :     10.69s CPU     10.98s WALL (    6303 calls)

     General routines
     calbec       :     14.86s CPU     15.26s WALL (    8473 calls)
     fft          :      0.19s CPU      0.20s WALL (     715 calls)
     fftw         :     84.14s CPU     85.88s WALL (  442180 calls)
     davcio       :      0.08s CPU      0.92s WALL (      70 calls)
 
     Parallel routines
     fft_scatter  :     27.03s CPU     27.72s WALL (  442895 calls)

     PAW routines
     PAW_pot      :      9.08s CPU      9.42s WALL (      27 calls)
     PAW_symme    :      0.04s CPU      0.04s WALL (      53 calls)
 
     PWSCF        :  4m24.28s CPU     4m30.45s WALL

 
   This run was terminated on:  13:58:53  27Oct2020            

=------------------------------------------------------------------------------=
   JOB DONE.
=------------------------------------------------------------------------------=
