
     Program PWSCF v.5.2.0 starts on 27Oct2020 at 22: 1:13 

     This program is part of the open-source Quantum ESPRESSO suite
     for quantum simulation of materials; please cite
         "P. Giannozzi et al., J. Phys.:Condens. Matter 21 395502 (2009);
          URL http://www.quantum-espresso.org", 
     in publications or presentations arising from this work. More details at
     http://www.quantum-espresso.org/quote

     Parallel version (MPI), running on     6 processors
     R & G space division:  proc/nbgrp/npool/nimage =       6
     Reading input from 20.in

     Current dimensions of program PWSCF are:
     Max number of different atomic species (ntypx) = 10
     Max number of k-points (npk) =  40000
     Max angular momentum in pseudopotentials (lmaxx) =  3

     IMPORTANT: XC functional enforced from input :
     Exchange-correlation      = PBE ( 1  4  3  4 0 0)
     Any further DFT definition will be discarded
     Please, verify this is what you really want

               file Fe_PSEUDO: wavefunction(s)  3P 3D renormalized
               file N_PSEUDO: wavefunction(s)  2S renormalized

     Subspace diagonalization in iterative solution of the eigenvalue problem:
     a serial algorithm will be used

 
     Parallelization info
     --------------------
     sticks:   dense  smooth     PW     G-vecs:    dense   smooth      PW
     Min        2175     433    120               186747    16717    2460
     Max        2176     434    121               186748    16745    2463
     Sum       13053    2601    725              1120485   100377   14771
 
     Generating pointlists ...
     new r_m :   0.2063 (alat units)  1.4318 (a.u.) for type    1
     new r_m :   0.2063 (alat units)  1.4318 (a.u.) for type    2


     bravais-lattice index     =            0
     lattice parameter (alat)  =       6.9422  a.u.
     unit-cell volume          =     334.5777 (a.u.)^3
     number of atoms/cell      =            5
     number of atomic types    =            2
     number of electrons       =        69.00
     number of Kohn-Sham states=           42
     kinetic-energy cutoff     =     170.0000  Ry
     charge density cutoff     =    3400.0000  Ry
     convergence threshold     =      1.0E-08
     mixing beta               =       0.7000
     number of iterations used =            8  plain     mixing
     Exchange-correlation      = PBE ( 1  4  3  4 0 0)

     celldm(1)=   6.942230  celldm(2)=   0.000000  celldm(3)=   0.000000
     celldm(4)=   0.000000  celldm(5)=   0.000000  celldm(6)=   0.000000

     crystal axes: (cart. coord. in units of alat)
               a(1) = (   1.000000   0.000000   0.000000 )  
               a(2) = (   0.000000   1.000000   0.000000 )  
               a(3) = (   0.000000   0.000000   1.000000 )  

     reciprocal axes: (cart. coord. in units 2 pi/alat)
               b(1) = (  1.000000  0.000000  0.000000 )  
               b(2) = (  0.000000  1.000000  0.000000 )  
               b(3) = (  0.000000  0.000000  1.000000 )  


     PseudoPot. # 1 for Fe read from file:
     pseudo/Fe_PSEUDO
     MD5 check sum: e30d5f36a6f0cb983ee41abee56170da
     Pseudo is Projector augmented-wave + core cor, Zval = 16.0
     Generated using "atomic" code by A. Dal Corso  v.6.3
     Shape of augmentation charge: PSQ
     Using radial grid of 1191 points,  6 beta functions with: 
                l(1) =   0
                l(2) =   0
                l(3) =   1
                l(4) =   1
                l(5) =   2
                l(6) =   2
     Q(r) pseudized with 0 coefficients 


     PseudoPot. # 2 for  N read from file:
     pseudo/N_PSEUDO
     MD5 check sum: 14c48229446f9f2d411169a3abcbc3fa
     Pseudo is Projector augmented-wave + core cor, Zval =  5.0
     Generated using "atomic" code by A. Dal Corso  v.6.3
     Shape of augmentation charge: PSQ
     Using radial grid of 1085 points,  4 beta functions with: 
                l(1) =   0
                l(2) =   0
                l(3) =   1
                l(4) =   1
     Q(r) pseudized with 0 coefficients 


     atomic species   valence    mass     pseudopotential
        Fe            16.00    55.84500     Fe( 1.00)
        N              5.00    14.00650      N( 1.00)

     Starting magnetic structure 
     atomic species   magnetization
        Fe           0.500
        N           -0.010

     48 Sym. Ops., with inversion, found



   Cartesian axes

     site n.     atom                  positions (alat units)
         1           Fe  tau(   1) = (   0.0000000   0.5000000   0.5000000  )
         2           Fe  tau(   2) = (   0.5000000   0.5000000   0.0000000  )
         3           Fe  tau(   3) = (   0.5000000   0.0000000   0.5000000  )
         4           Fe  tau(   4) = (   0.0000000   0.0000000   0.0000000  )
         5           N   tau(   5) = (   0.5000000   0.5000000   0.5000000  )

     number of k points=    70  Marzari-Vanderbilt smearing, width (Ry)=  0.0050
                       cart. coord. in units 2pi/alat
        k(    1) = (   0.0000000   0.0000000   0.0000000), wk =   0.0013717
        k(    2) = (   0.0000000   0.0000000   0.1111111), wk =   0.0082305
        k(    3) = (   0.0000000   0.0000000   0.2222222), wk =   0.0082305
        k(    4) = (   0.0000000   0.0000000   0.3333333), wk =   0.0082305
        k(    5) = (   0.0000000   0.0000000   0.4444444), wk =   0.0082305
        k(    6) = (   0.0000000   0.1111111   0.1111111), wk =   0.0164609
        k(    7) = (   0.0000000   0.1111111   0.2222222), wk =   0.0329218
        k(    8) = (   0.0000000   0.1111111   0.3333333), wk =   0.0329218
        k(    9) = (   0.0000000   0.1111111   0.4444444), wk =   0.0329218
        k(   10) = (   0.0000000   0.2222222   0.2222222), wk =   0.0164609
        k(   11) = (   0.0000000   0.2222222   0.3333333), wk =   0.0329218
        k(   12) = (   0.0000000   0.2222222   0.4444444), wk =   0.0329218
        k(   13) = (   0.0000000   0.3333333   0.3333333), wk =   0.0164609
        k(   14) = (   0.0000000   0.3333333   0.4444444), wk =   0.0329218
        k(   15) = (   0.0000000   0.4444444   0.4444444), wk =   0.0164609
        k(   16) = (   0.1111111   0.1111111   0.1111111), wk =   0.0109739
        k(   17) = (   0.1111111   0.1111111   0.2222222), wk =   0.0329218
        k(   18) = (   0.1111111   0.1111111   0.3333333), wk =   0.0329218
        k(   19) = (   0.1111111   0.1111111   0.4444444), wk =   0.0329218
        k(   20) = (   0.1111111   0.2222222   0.2222222), wk =   0.0329218
        k(   21) = (   0.1111111   0.2222222   0.3333333), wk =   0.0658436
        k(   22) = (   0.1111111   0.2222222   0.4444444), wk =   0.0658436
        k(   23) = (   0.1111111   0.3333333   0.3333333), wk =   0.0329218
        k(   24) = (   0.1111111   0.3333333   0.4444444), wk =   0.0658436
        k(   25) = (   0.1111111   0.4444444   0.4444444), wk =   0.0329218
        k(   26) = (   0.2222222   0.2222222   0.2222222), wk =   0.0109739
        k(   27) = (   0.2222222   0.2222222   0.3333333), wk =   0.0329218
        k(   28) = (   0.2222222   0.2222222   0.4444444), wk =   0.0329218
        k(   29) = (   0.2222222   0.3333333   0.3333333), wk =   0.0329218
        k(   30) = (   0.2222222   0.3333333   0.4444444), wk =   0.0658436
        k(   31) = (   0.2222222   0.4444444   0.4444444), wk =   0.0329218
        k(   32) = (   0.3333333   0.3333333   0.3333333), wk =   0.0109739
        k(   33) = (   0.3333333   0.3333333   0.4444444), wk =   0.0329218
        k(   34) = (   0.3333333   0.4444444   0.4444444), wk =   0.0329218
        k(   35) = (   0.4444444   0.4444444   0.4444444), wk =   0.0109739
        k(   36) = (   0.0000000   0.0000000   0.0000000), wk =   0.0013717
        k(   37) = (   0.0000000   0.0000000   0.1111111), wk =   0.0082305
        k(   38) = (   0.0000000   0.0000000   0.2222222), wk =   0.0082305
        k(   39) = (   0.0000000   0.0000000   0.3333333), wk =   0.0082305
        k(   40) = (   0.0000000   0.0000000   0.4444444), wk =   0.0082305
        k(   41) = (   0.0000000   0.1111111   0.1111111), wk =   0.0164609
        k(   42) = (   0.0000000   0.1111111   0.2222222), wk =   0.0329218
        k(   43) = (   0.0000000   0.1111111   0.3333333), wk =   0.0329218
        k(   44) = (   0.0000000   0.1111111   0.4444444), wk =   0.0329218
        k(   45) = (   0.0000000   0.2222222   0.2222222), wk =   0.0164609
        k(   46) = (   0.0000000   0.2222222   0.3333333), wk =   0.0329218
        k(   47) = (   0.0000000   0.2222222   0.4444444), wk =   0.0329218
        k(   48) = (   0.0000000   0.3333333   0.3333333), wk =   0.0164609
        k(   49) = (   0.0000000   0.3333333   0.4444444), wk =   0.0329218
        k(   50) = (   0.0000000   0.4444444   0.4444444), wk =   0.0164609
        k(   51) = (   0.1111111   0.1111111   0.1111111), wk =   0.0109739
        k(   52) = (   0.1111111   0.1111111   0.2222222), wk =   0.0329218
        k(   53) = (   0.1111111   0.1111111   0.3333333), wk =   0.0329218
        k(   54) = (   0.1111111   0.1111111   0.4444444), wk =   0.0329218
        k(   55) = (   0.1111111   0.2222222   0.2222222), wk =   0.0329218
        k(   56) = (   0.1111111   0.2222222   0.3333333), wk =   0.0658436
        k(   57) = (   0.1111111   0.2222222   0.4444444), wk =   0.0658436
        k(   58) = (   0.1111111   0.3333333   0.3333333), wk =   0.0329218
        k(   59) = (   0.1111111   0.3333333   0.4444444), wk =   0.0658436
        k(   60) = (   0.1111111   0.4444444   0.4444444), wk =   0.0329218
        k(   61) = (   0.2222222   0.2222222   0.2222222), wk =   0.0109739
        k(   62) = (   0.2222222   0.2222222   0.3333333), wk =   0.0329218
        k(   63) = (   0.2222222   0.2222222   0.4444444), wk =   0.0329218
        k(   64) = (   0.2222222   0.3333333   0.3333333), wk =   0.0329218
        k(   65) = (   0.2222222   0.3333333   0.4444444), wk =   0.0658436
        k(   66) = (   0.2222222   0.4444444   0.4444444), wk =   0.0329218
        k(   67) = (   0.3333333   0.3333333   0.3333333), wk =   0.0109739
        k(   68) = (   0.3333333   0.3333333   0.4444444), wk =   0.0329218
        k(   69) = (   0.3333333   0.4444444   0.4444444), wk =   0.0329218
        k(   70) = (   0.4444444   0.4444444   0.4444444), wk =   0.0109739

     Dense  grid:  1120485 G-vectors     FFT dimensions: ( 135, 135, 135)

     Smooth grid:   100377 G-vectors     FFT dimensions: (  60,  60,  60)

     Largest allocated arrays     est. size (Mb)     dimensions
        Kohn-Sham Wavefunctions         1.37 Mb     (    2130,   42)
        NL pseudopotentials             2.60 Mb     (    2130,   80)
        Each V/rho on FFT grid         12.79 Mb     (  419175,   2)
        Each G-vector array             1.42 Mb     (  186747)
        G-vector shells                 0.03 Mb     (    3457)
     Largest temporary arrays     est. size (Mb)     dimensions
        Auxiliary wavefunctions         5.46 Mb     (    2130,  168)
        Each subspace H/S matrix        0.43 Mb     (     168,  168)
        Each <psi_i|beta_j> matrix      0.05 Mb     (      80,   42)
        Arrays for rho mixing          51.17 Mb     (  419175,    8)

     Initial potential from superposition of free atoms

     starting charge   68.99837, renormalised to   69.00000
     Starting wfc are   44 randomized atomic wfcs
     Checking if some PAW data can be deallocated... 

     total cpu time spent up to now is       22.9 secs

     per-process dynamical memory:   235.9 Mb

     Self-consistent Calculation

     iteration #  1     ecut=   170.00 Ry     beta=0.70
     Davidson diagonalization with overlap
     ethr =  1.00E-02,  avg # of iterations =  3.1

     negative rho (up, down):  0.000E+00 4.305E-04
 
     Magnetic moment per site:
     atom:    1    charge:   12.7421    magn:    4.0934    constr:    0.0000
     atom:    2    charge:   12.7421    magn:    4.0934    constr:    0.0000
     atom:    3    charge:   12.7421    magn:    4.0934    constr:    0.0000
     atom:    4    charge:   12.6174    magn:    4.1690    constr:    0.0000
     atom:    5    charge:    4.6386    magn:    0.1182    constr:    0.0000

     total cpu time spent up to now is       88.6 secs

     total energy              =   -1344.14142599 Ry
     Harris-Foulkes estimate   =   -1343.39773055 Ry
     estimated scf accuracy    <       2.87360643 Ry

     total magnetization       =    13.86 Bohr mag/cell
     absolute magnetization    =    14.04 Bohr mag/cell

     iteration #  2     ecut=   170.00 Ry     beta=0.70
     Davidson diagonalization with overlap
     ethr =  4.16E-03,  avg # of iterations =  3.3

     negative rho (up, down):  0.000E+00 3.827E-04
 
     Magnetic moment per site:
     atom:    1    charge:   12.7258    magn:    3.8174    constr:    0.0000
     atom:    2    charge:   12.7258    magn:    3.8174    constr:    0.0000
     atom:    3    charge:   12.7258    magn:    3.8174    constr:    0.0000
     atom:    4    charge:   13.0689    magn:    3.5733    constr:    0.0000
     atom:    5    charge:    4.2331    magn:    0.0575    constr:    0.0000

     total cpu time spent up to now is      153.2 secs

     total energy              =   -1343.28303050 Ry
     Harris-Foulkes estimate   =   -1345.76511638 Ry
     estimated scf accuracy    <       8.69535439 Ry

     total magnetization       =     9.38 Bohr mag/cell
     absolute magnetization    =    10.50 Bohr mag/cell

     iteration #  3     ecut=   170.00 Ry     beta=0.70
     Davidson diagonalization with overlap
     ethr =  4.16E-03,  avg # of iterations =  3.5

     negative rho (up, down):  0.000E+00 1.846E-04
 
     Magnetic moment per site:
     atom:    1    charge:   12.8865    magn:    3.4406    constr:    0.0000
     atom:    2    charge:   12.8865    magn:    3.4406    constr:    0.0000
     atom:    3    charge:   12.8865    magn:    3.4406    constr:    0.0000
     atom:    4    charge:   12.8138    magn:    3.0049    constr:    0.0000
     atom:    5    charge:    4.0291    magn:    0.0235    constr:    0.0000

     total cpu time spent up to now is      219.0 secs

     total energy              =   -1343.62139868 Ry
     Harris-Foulkes estimate   =   -1346.19406250 Ry
     estimated scf accuracy    <      25.49972935 Ry

     total magnetization       =     3.80 Bohr mag/cell
     absolute magnetization    =     4.50 Bohr mag/cell

     iteration #  4     ecut=   170.00 Ry     beta=0.70
     Davidson diagonalization with overlap
     ethr =  4.16E-03,  avg # of iterations =  3.2

     negative rho (up, down):  0.000E+00 5.778E-04
 
     Magnetic moment per site:
     atom:    1    charge:   12.7705    magn:    2.2717    constr:    0.0000
     atom:    2    charge:   12.7705    magn:    2.2717    constr:    0.0000
     atom:    3    charge:   12.7705    magn:    2.2717    constr:    0.0000
     atom:    4    charge:   12.7245    magn:    1.8768    constr:    0.0000
     atom:    5    charge:    4.0551    magn:   -0.0473    constr:    0.0000

     total cpu time spent up to now is      282.6 secs

     total energy              =   -1345.02550466 Ry
     Harris-Foulkes estimate   =   -1345.10973835 Ry
     estimated scf accuracy    <       0.55153484 Ry

     total magnetization       =    10.75 Bohr mag/cell
     absolute magnetization    =    11.16 Bohr mag/cell

     iteration #  5     ecut=   170.00 Ry     beta=0.70
     Davidson diagonalization with overlap
     ethr =  7.99E-04,  avg # of iterations =  3.3

     negative rho (up, down):  0.000E+00 3.920E-04
 
     Magnetic moment per site:
     atom:    1    charge:   12.8324    magn:    2.1645    constr:    0.0000
     atom:    2    charge:   12.8324    magn:    2.1645    constr:    0.0000
     atom:    3    charge:   12.8324    magn:    2.1645    constr:    0.0000
     atom:    4    charge:   12.8031    magn:    2.0329    constr:    0.0000
     atom:    5    charge:    4.1093    magn:   -0.0263    constr:    0.0000

     total cpu time spent up to now is      351.4 secs

     total energy              =   -1345.11166332 Ry
     Harris-Foulkes estimate   =   -1345.20697981 Ry
     estimated scf accuracy    <       0.26108467 Ry

     total magnetization       =     9.60 Bohr mag/cell
     absolute magnetization    =     9.96 Bohr mag/cell

     iteration #  6     ecut=   170.00 Ry     beta=0.70
     Davidson diagonalization with overlap
     ethr =  3.78E-04,  avg # of iterations =  3.0

     negative rho (up, down):  0.000E+00 3.090E-04
 
     Magnetic moment per site:
     atom:    1    charge:   12.8271    magn:    2.1149    constr:    0.0000
     atom:    2    charge:   12.8271    magn:    2.1149    constr:    0.0000
     atom:    3    charge:   12.8271    magn:    2.1149    constr:    0.0000
     atom:    4    charge:   12.7933    magn:    2.3654    constr:    0.0000
     atom:    5    charge:    4.1122    magn:    0.0069    constr:    0.0000

     total cpu time spent up to now is      416.1 secs

     total energy              =   -1345.16181927 Ry
     Harris-Foulkes estimate   =   -1345.15730680 Ry
     estimated scf accuracy    <       0.02555200 Ry

     total magnetization       =     9.38 Bohr mag/cell
     absolute magnetization    =     9.72 Bohr mag/cell

     iteration #  7     ecut=   170.00 Ry     beta=0.70
     Davidson diagonalization with overlap
     ethr =  3.70E-05,  avg # of iterations =  1.7

     negative rho (up, down):  0.000E+00 3.216E-04
 
     Magnetic moment per site:
     atom:    1    charge:   12.8282    magn:    1.9546    constr:    0.0000
     atom:    2    charge:   12.8282    magn:    1.9546    constr:    0.0000
     atom:    3    charge:   12.8282    magn:    1.9546    constr:    0.0000
     atom:    4    charge:   12.7730    magn:    2.8135    constr:    0.0000
     atom:    5    charge:    4.1110    magn:    0.0391    constr:    0.0000

     total cpu time spent up to now is      474.1 secs

     total energy              =   -1345.16169994 Ry
     Harris-Foulkes estimate   =   -1345.16360964 Ry
     estimated scf accuracy    <       0.01794847 Ry

     total magnetization       =     9.38 Bohr mag/cell
     absolute magnetization    =     9.71 Bohr mag/cell

     iteration #  8     ecut=   170.00 Ry     beta=0.70
     Davidson diagonalization with overlap
     ethr =  2.60E-05,  avg # of iterations =  2.2

     negative rho (up, down):  0.000E+00 2.953E-04
 
     Magnetic moment per site:
     atom:    1    charge:   12.8310    magn:    1.8612    constr:    0.0000
     atom:    2    charge:   12.8310    magn:    1.8612    constr:    0.0000
     atom:    3    charge:   12.8310    magn:    1.8612    constr:    0.0000
     atom:    4    charge:   12.7753    magn:    2.7234    constr:    0.0000
     atom:    5    charge:    4.1091    magn:    0.0306    constr:    0.0000

     total cpu time spent up to now is      534.9 secs

     total energy              =   -1345.16682980 Ry
     Harris-Foulkes estimate   =   -1345.16581828 Ry
     estimated scf accuracy    <       0.00207676 Ry

     total magnetization       =     9.00 Bohr mag/cell
     absolute magnetization    =     9.35 Bohr mag/cell

     iteration #  9     ecut=   170.00 Ry     beta=0.70
     Davidson diagonalization with overlap
     ethr =  3.01E-06,  avg # of iterations =  2.0

     negative rho (up, down):  0.000E+00 3.685E-04
 
     Magnetic moment per site:
     atom:    1    charge:   12.8288    magn:    1.9985    constr:    0.0000
     atom:    2    charge:   12.8288    magn:    1.9985    constr:    0.0000
     atom:    3    charge:   12.8288    magn:    1.9985    constr:    0.0000
     atom:    4    charge:   12.7744    magn:    2.7542    constr:    0.0000
     atom:    5    charge:    4.1142    magn:    0.0384    constr:    0.0000

     total cpu time spent up to now is      592.8 secs

     total energy              =   -1345.16411395 Ry
     Harris-Foulkes estimate   =   -1345.16764012 Ry
     estimated scf accuracy    <       0.00200230 Ry

     total magnetization       =     8.58 Bohr mag/cell
     absolute magnetization    =     8.96 Bohr mag/cell

     iteration # 10     ecut=   170.00 Ry     beta=0.70
     Davidson diagonalization with overlap
     ethr =  2.90E-06,  avg # of iterations =  2.0

     negative rho (up, down):  0.000E+00 4.129E-04
 
     Magnetic moment per site:
     atom:    1    charge:   12.8275    magn:    2.0741    constr:    0.0000
     atom:    2    charge:   12.8275    magn:    2.0741    constr:    0.0000
     atom:    3    charge:   12.8275    magn:    2.0741    constr:    0.0000
     atom:    4    charge:   12.7752    magn:    2.7422    constr:    0.0000
     atom:    5    charge:    4.1173    magn:    0.0445    constr:    0.0000

     total cpu time spent up to now is      650.7 secs

     total energy              =   -1345.16420112 Ry
     Harris-Foulkes estimate   =   -1345.16565449 Ry
     estimated scf accuracy    <       0.00219867 Ry

     total magnetization       =     9.11 Bohr mag/cell
     absolute magnetization    =     9.45 Bohr mag/cell

     iteration # 11     ecut=   170.00 Ry     beta=0.70
     Davidson diagonalization with overlap
     ethr =  2.90E-06,  avg # of iterations =  1.5

     negative rho (up, down):  0.000E+00 2.513E-04
 
     Magnetic moment per site:
     atom:    1    charge:   12.8337    magn:    1.7423    constr:    0.0000
     atom:    2    charge:   12.8337    magn:    1.7423    constr:    0.0000
     atom:    3    charge:   12.8337    magn:    1.7423    constr:    0.0000
     atom:    4    charge:   12.7752    magn:    2.6941    constr:    0.0000
     atom:    5    charge:    4.1050    magn:    0.0151    constr:    0.0000

     total cpu time spent up to now is      707.6 secs

     total energy              =   -1345.16151996 Ry
     Harris-Foulkes estimate   =   -1345.16459806 Ry
     estimated scf accuracy    <       0.00278196 Ry

     total magnetization       =     9.32 Bohr mag/cell
     absolute magnetization    =     9.65 Bohr mag/cell

     iteration # 12     ecut=   170.00 Ry     beta=0.70
     Davidson diagonalization with overlap
     ethr =  2.90E-06,  avg # of iterations =  3.0

     negative rho (up, down):  0.000E+00 1.954E-04
 
     Magnetic moment per site:
     atom:    1    charge:   12.8425    magn:    1.2384    constr:    0.0000
     atom:    2    charge:   12.8425    magn:    1.2384    constr:    0.0000
     atom:    3    charge:   12.8425    magn:    1.2384    constr:    0.0000
     atom:    4    charge:   12.7740    magn:    2.6491    constr:    0.0000
     atom:    5    charge:    4.0850    magn:   -0.0305    constr:    0.0000

     total cpu time spent up to now is      775.1 secs

     total energy              =   -1345.15568083 Ry
     Harris-Foulkes estimate   =   -1345.16956783 Ry
     estimated scf accuracy    <       0.00149203 Ry

     total magnetization       =     8.22 Bohr mag/cell
     absolute magnetization    =     8.61 Bohr mag/cell

     iteration # 13     ecut=   170.00 Ry     beta=0.70
     Davidson diagonalization with overlap
     ethr =  2.16E-06,  avg # of iterations =  3.5

     negative rho (up, down):  0.000E+00 1.926E-04
 
     Magnetic moment per site:
     atom:    1    charge:   12.8447    magn:    1.1336    constr:    0.0000
     atom:    2    charge:   12.8447    magn:    1.1336    constr:    0.0000
     atom:    3    charge:   12.8447    magn:    1.1336    constr:    0.0000
     atom:    4    charge:   12.7738    magn:    2.6463    constr:    0.0000
     atom:    5    charge:    4.0805    magn:   -0.0408    constr:    0.0000

     total cpu time spent up to now is      854.6 secs

     total energy              =   -1345.16818839 Ry
     Harris-Foulkes estimate   =   -1345.16989890 Ry
     estimated scf accuracy    <       0.00099653 Ry

     total magnetization       =     7.04 Bohr mag/cell
     absolute magnetization    =     7.41 Bohr mag/cell

     iteration # 14     ecut=   170.00 Ry     beta=0.70
     Davidson diagonalization with overlap
     ethr =  1.44E-06,  avg # of iterations =  2.1

     negative rho (up, down):  0.000E+00 1.957E-04
 
     Magnetic moment per site:
     atom:    1    charge:   12.8440    magn:    1.1832    constr:    0.0000
     atom:    2    charge:   12.8440    magn:    1.1832    constr:    0.0000
     atom:    3    charge:   12.8440    magn:    1.1832    constr:    0.0000
     atom:    4    charge:   12.7740    magn:    2.6521    constr:    0.0000
     atom:    5    charge:    4.0819    magn:   -0.0373    constr:    0.0000

     total cpu time spent up to now is      914.6 secs

     total energy              =   -1345.16928477 Ry
     Harris-Foulkes estimate   =   -1345.16885214 Ry
     estimated scf accuracy    <       0.00218410 Ry

     total magnetization       =     6.80 Bohr mag/cell
     absolute magnetization    =     7.15 Bohr mag/cell

     iteration # 15     ecut=   170.00 Ry     beta=0.70
     Davidson diagonalization with overlap
     ethr =  1.44E-06,  avg # of iterations =  1.0

     negative rho (up, down):  0.000E+00 1.955E-04
 
     Magnetic moment per site:
     atom:    1    charge:   12.8447    magn:    1.1522    constr:    0.0000
     atom:    2    charge:   12.8447    magn:    1.1522    constr:    0.0000
     atom:    3    charge:   12.8447    magn:    1.1522    constr:    0.0000
     atom:    4    charge:   12.7741    magn:    2.6540    constr:    0.0000
     atom:    5    charge:    4.0805    magn:   -0.0405    constr:    0.0000

     total cpu time spent up to now is      971.0 secs

     total energy              =   -1345.16909639 Ry
     Harris-Foulkes estimate   =   -1345.16943993 Ry
     estimated scf accuracy    <       0.00162195 Ry

     total magnetization       =     6.92 Bohr mag/cell
     absolute magnetization    =     7.28 Bohr mag/cell

     iteration # 16     ecut=   170.00 Ry     beta=0.70
     Davidson diagonalization with overlap
     ethr =  1.44E-06,  avg # of iterations =  1.0

     negative rho (up, down):  0.000E+00 2.067E-04
 
     Magnetic moment per site:
     atom:    1    charge:   12.8445    magn:    1.1946    constr:    0.0000
     atom:    2    charge:   12.8445    magn:    1.1946    constr:    0.0000
     atom:    3    charge:   12.8445    magn:    1.1946    constr:    0.0000
     atom:    4    charge:   12.7742    magn:    2.6767    constr:    0.0000
     atom:    5    charge:    4.0801    magn:   -0.0414    constr:    0.0000

     total cpu time spent up to now is     1027.3 secs

     total energy              =   -1345.16961119 Ry
     Harris-Foulkes estimate   =   -1345.16915249 Ry
     estimated scf accuracy    <       0.00205124 Ry

     total magnetization       =     6.85 Bohr mag/cell
     absolute magnetization    =     7.21 Bohr mag/cell

     iteration # 17     ecut=   170.00 Ry     beta=0.70
     Davidson diagonalization with overlap
     ethr =  1.44E-06,  avg # of iterations =  1.0

     negative rho (up, down):  0.000E+00 2.133E-04
 
     Magnetic moment per site:
     atom:    1    charge:   12.8381    magn:    1.5013    constr:    0.0000
     atom:    2    charge:   12.8381    magn:    1.5013    constr:    0.0000
     atom:    3    charge:   12.8381    magn:    1.5013    constr:    0.0000
     atom:    4    charge:   12.7747    magn:    2.6887    constr:    0.0000
     atom:    5    charge:    4.0915    magn:   -0.0180    constr:    0.0000

     total cpu time spent up to now is     1083.5 secs

     total energy              =   -1345.16507084 Ry
     Harris-Foulkes estimate   =   -1345.16978092 Ry
     estimated scf accuracy    <       0.00187416 Ry

     total magnetization       =     6.97 Bohr mag/cell
     absolute magnetization    =     7.32 Bohr mag/cell

     iteration # 18     ecut=   170.00 Ry     beta=0.70
     Davidson diagonalization with overlap
     ethr =  1.44E-06,  avg # of iterations =  3.1

     negative rho (up, down):  0.000E+00 2.125E-04
 
     Magnetic moment per site:
     atom:    1    charge:   12.8395    magn:    1.4607    constr:    0.0000
     atom:    2    charge:   12.8395    magn:    1.4607    constr:    0.0000
     atom:    3    charge:   12.8395    magn:    1.4607    constr:    0.0000
     atom:    4    charge:   12.7744    magn:    2.6862    constr:    0.0000
     atom:    5    charge:    4.0902    magn:   -0.0201    constr:    0.0000

     total cpu time spent up to now is     1157.0 secs

     total energy              =   -1345.17080317 Ry
     Harris-Foulkes estimate   =   -1345.17088444 Ry
     estimated scf accuracy    <       0.00175678 Ry

     total magnetization       =     7.75 Bohr mag/cell
     absolute magnetization    =     8.09 Bohr mag/cell

     iteration # 19     ecut=   170.00 Ry     beta=0.70
     Davidson diagonalization with overlap
     ethr =  1.44E-06,  avg # of iterations =  1.0

     negative rho (up, down):  0.000E+00 2.103E-04
 
     Magnetic moment per site:
     atom:    1    charge:   12.8394    magn:    1.4477    constr:    0.0000
     atom:    2    charge:   12.8394    magn:    1.4477    constr:    0.0000
     atom:    3    charge:   12.8394    magn:    1.4477    constr:    0.0000
     atom:    4    charge:   12.7742    magn:    2.6815    constr:    0.0000
     atom:    5    charge:    4.0900    magn:   -0.0197    constr:    0.0000

     total cpu time spent up to now is     1213.4 secs

     total energy              =   -1345.17089940 Ry
     Harris-Foulkes estimate   =   -1345.17091170 Ry
     estimated scf accuracy    <       0.00087190 Ry

     total magnetization       =     7.64 Bohr mag/cell
     absolute magnetization    =     7.99 Bohr mag/cell

     iteration # 20     ecut=   170.00 Ry     beta=0.70
     Davidson diagonalization with overlap
     ethr =  1.26E-06,  avg # of iterations =  1.0

     negative rho (up, down):  0.000E+00 2.036E-04
 
     Magnetic moment per site:
     atom:    1    charge:   12.8384    magn:    1.4686    constr:    0.0000
     atom:    2    charge:   12.8384    magn:    1.4686    constr:    0.0000
     atom:    3    charge:   12.8384    magn:    1.4686    constr:    0.0000
     atom:    4    charge:   12.7738    magn:    2.6674    constr:    0.0000
     atom:    5    charge:    4.0922    magn:   -0.0127    constr:    0.0000

     total cpu time spent up to now is     1269.8 secs

     total energy              =   -1345.17085836 Ry
     Harris-Foulkes estimate   =   -1345.17091494 Ry
     estimated scf accuracy    <       0.00066414 Ry

     total magnetization       =     7.60 Bohr mag/cell
     absolute magnetization    =     7.95 Bohr mag/cell

     iteration # 21     ecut=   170.00 Ry     beta=0.70
     Davidson diagonalization with overlap
     ethr =  9.63E-07,  avg # of iterations =  1.0

     negative rho (up, down):  0.000E+00 1.996E-04
 
     Magnetic moment per site:
     atom:    1    charge:   12.8376    magn:    1.4723    constr:    0.0000
     atom:    2    charge:   12.8376    magn:    1.4723    constr:    0.0000
     atom:    3    charge:   12.8376    magn:    1.4723    constr:    0.0000
     atom:    4    charge:   12.7735    magn:    2.6594    constr:    0.0000
     atom:    5    charge:    4.0935    magn:   -0.0086    constr:    0.0000

     total cpu time spent up to now is     1326.1 secs

     total energy              =   -1345.17091148 Ry
     Harris-Foulkes estimate   =   -1345.17091335 Ry
     estimated scf accuracy    <       0.00011241 Ry

     total magnetization       =     7.64 Bohr mag/cell
     absolute magnetization    =     7.99 Bohr mag/cell

     iteration # 22     ecut=   170.00 Ry     beta=0.70
     Davidson diagonalization with overlap
     ethr =  1.63E-07,  avg # of iterations =  2.1

     negative rho (up, down):  0.000E+00 1.970E-04
 
     Magnetic moment per site:
     atom:    1    charge:   12.8374    magn:    1.4793    constr:    0.0000
     atom:    2    charge:   12.8374    magn:    1.4793    constr:    0.0000
     atom:    3    charge:   12.8374    magn:    1.4793    constr:    0.0000
     atom:    4    charge:   12.7738    magn:    2.6546    constr:    0.0000
     atom:    5    charge:    4.0943    magn:   -0.0054    constr:    0.0000

     total cpu time spent up to now is     1384.2 secs

     total energy              =   -1345.17092478 Ry
     Harris-Foulkes estimate   =   -1345.17092493 Ry
     estimated scf accuracy    <       0.00001497 Ry

     total magnetization       =     7.64 Bohr mag/cell
     absolute magnetization    =     7.99 Bohr mag/cell

     iteration # 23     ecut=   170.00 Ry     beta=0.70
     Davidson diagonalization with overlap
     ethr =  2.17E-08,  avg # of iterations =  2.7

     negative rho (up, down):  0.000E+00 1.979E-04
 
     Magnetic moment per site:
     atom:    1    charge:   12.8374    magn:    1.4827    constr:    0.0000
     atom:    2    charge:   12.8374    magn:    1.4827    constr:    0.0000
     atom:    3    charge:   12.8374    magn:    1.4827    constr:    0.0000
     atom:    4    charge:   12.7738    magn:    2.6559    constr:    0.0000
     atom:    5    charge:    4.0943    magn:   -0.0049    constr:    0.0000

     total cpu time spent up to now is     1447.3 secs

     total energy              =   -1345.17093193 Ry
     Harris-Foulkes estimate   =   -1345.17093214 Ry
     estimated scf accuracy    <       0.00000250 Ry

     total magnetization       =     7.66 Bohr mag/cell
     absolute magnetization    =     8.01 Bohr mag/cell

     iteration # 24     ecut=   170.00 Ry     beta=0.70
     Davidson diagonalization with overlap
     ethr =  3.62E-09,  avg # of iterations =  1.9

     negative rho (up, down):  0.000E+00 1.969E-04
 
     Magnetic moment per site:
     atom:    1    charge:   12.8373    magn:    1.4869    constr:    0.0000
     atom:    2    charge:   12.8373    magn:    1.4869    constr:    0.0000
     atom:    3    charge:   12.8373    magn:    1.4869    constr:    0.0000
     atom:    4    charge:   12.7738    magn:    2.6541    constr:    0.0000
     atom:    5    charge:    4.0948    magn:   -0.0037    constr:    0.0000

     total cpu time spent up to now is     1506.2 secs

     total energy              =   -1345.17093202 Ry
     Harris-Foulkes estimate   =   -1345.17093311 Ry
     estimated scf accuracy    <       0.00000234 Ry

     total magnetization       =     7.67 Bohr mag/cell
     absolute magnetization    =     8.02 Bohr mag/cell

     iteration # 25     ecut=   170.00 Ry     beta=0.70
     Davidson diagonalization with overlap
     ethr =  3.39E-09,  avg # of iterations =  2.4

     negative rho (up, down):  0.000E+00 1.968E-04
 
     Magnetic moment per site:
     atom:    1    charge:   12.8373    magn:    1.4882    constr:    0.0000
     atom:    2    charge:   12.8373    magn:    1.4882    constr:    0.0000
     atom:    3    charge:   12.8373    magn:    1.4882    constr:    0.0000
     atom:    4    charge:   12.7738    magn:    2.6539    constr:    0.0000
     atom:    5    charge:    4.0948    magn:   -0.0034    constr:    0.0000

     total cpu time spent up to now is     1567.8 secs

     total energy              =   -1345.17093357 Ry
     Harris-Foulkes estimate   =   -1345.17093371 Ry
     estimated scf accuracy    <       0.00000047 Ry

     total magnetization       =     7.68 Bohr mag/cell
     absolute magnetization    =     8.03 Bohr mag/cell

     iteration # 26     ecut=   170.00 Ry     beta=0.70
     Davidson diagonalization with overlap
     ethr =  6.74E-10,  avg # of iterations =  2.0

     negative rho (up, down):  0.000E+00 1.967E-04
 
     Magnetic moment per site:
     atom:    1    charge:   12.8373    magn:    1.4875    constr:    0.0000
     atom:    2    charge:   12.8373    magn:    1.4875    constr:    0.0000
     atom:    3    charge:   12.8373    magn:    1.4875    constr:    0.0000
     atom:    4    charge:   12.7738    magn:    2.6538    constr:    0.0000
     atom:    5    charge:    4.0948    magn:   -0.0037    constr:    0.0000

     total cpu time spent up to now is     1626.4 secs

     total energy              =   -1345.17093372 Ry
     Harris-Foulkes estimate   =   -1345.17093377 Ry
     estimated scf accuracy    <       0.00000005 Ry

     total magnetization       =     7.68 Bohr mag/cell
     absolute magnetization    =     8.03 Bohr mag/cell

     iteration # 27     ecut=   170.00 Ry     beta=0.70
     Davidson diagonalization with overlap
     ethr =  6.75E-11,  avg # of iterations =  2.6

     negative rho (up, down):  0.000E+00 1.967E-04
 
     Magnetic moment per site:
     atom:    1    charge:   12.8373    magn:    1.4878    constr:    0.0000
     atom:    2    charge:   12.8373    magn:    1.4878    constr:    0.0000
     atom:    3    charge:   12.8373    magn:    1.4878    constr:    0.0000
     atom:    4    charge:   12.7738    magn:    2.6537    constr:    0.0000
     atom:    5    charge:    4.0948    magn:   -0.0036    constr:    0.0000

     total cpu time spent up to now is     1691.4 secs

     total energy              =   -1345.17093377 Ry
     Harris-Foulkes estimate   =   -1345.17093378 Ry
     estimated scf accuracy    <       0.00000001 Ry

     total magnetization       =     7.68 Bohr mag/cell
     absolute magnetization    =     8.03 Bohr mag/cell

     iteration # 28     ecut=   170.00 Ry     beta=0.70
     Davidson diagonalization with overlap
     ethr =  2.03E-11,  avg # of iterations =  1.8

     negative rho (up, down):  0.000E+00 1.967E-04
 
     Magnetic moment per site:
     atom:    1    charge:   12.8373    magn:    1.4878    constr:    0.0000
     atom:    2    charge:   12.8373    magn:    1.4878    constr:    0.0000
     atom:    3    charge:   12.8373    magn:    1.4878    constr:    0.0000
     atom:    4    charge:   12.7739    magn:    2.6537    constr:    0.0000
     atom:    5    charge:    4.0948    magn:   -0.0036    constr:    0.0000

     total cpu time spent up to now is     1749.2 secs

     End of self-consistent calculation

 ------ SPIN UP ------------


          k = 0.0000 0.0000 0.0000 ( 12533 PWs)   bands (ev):

   -69.9376 -69.2603 -69.2060 -69.2060 -35.9985 -35.9985 -35.9985 -35.6165
   -35.6165 -35.6165 -35.1593 -35.1593 -35.1593 -35.1527 -35.1527 -35.1527
     0.3456  11.4280  13.3304  13.3304  13.3304  13.8394  13.8394  14.1048
    14.1048  14.1048  16.0920  16.0920  16.0920  17.1981  17.1981  17.8459
    17.8459  18.3979  18.3979  18.3979  18.4657  18.4657  18.4657  18.4671
    21.8872  23.7552

          k = 0.0000 0.0000 0.1111 ( 12537 PWs)   bands (ev):

   -69.9375 -69.2589 -69.2074 -69.2060 -35.9976 -35.9976 -35.9972 -35.6153
   -35.6153 -35.6142 -35.1603 -35.1603 -35.1596 -35.1575 -35.1539 -35.1539
     0.4153  11.4854  12.9272  13.1104  13.1104  13.9188  13.9304  14.1571
    14.3439  14.3439  16.0274  16.1460  16.1460  17.2212  17.2570  17.8145
    17.8700  18.3137  18.3137  18.3978  18.3978  18.3981  18.4060  18.4645
    21.9633  23.2362

          k = 0.0000 0.0000 0.2222 ( 12549 PWs)   bands (ev):

   -69.9373 -69.2550 -69.2116 -69.2059 -35.9950 -35.9950 -35.9937 -35.6122
   -35.6122 -35.6082 -35.1701 -35.1632 -35.1632 -35.1603 -35.1567 -35.1567
     0.6003  11.3377  12.5042  12.7672  12.7672  14.0810  14.1352  14.3087
    14.7507  14.7507  15.8447  16.2720  16.2720  17.1941  17.2855  17.7242
    17.7686  17.9540  17.9540  18.2390  18.3984  18.4012  18.4012  18.4618
    22.1772  22.5168

          k = 0.0000 0.0000 0.3333 ( 12553 PWs)   bands (ev):

   -69.9370 -69.2493 -69.2176 -69.2059 -35.9922 -35.9922 -35.9898 -35.6087
   -35.6087 -35.6008 -35.1851 -35.1669 -35.1669 -35.1612 -35.1596 -35.1596
     0.8282  10.6696  12.4973  12.4973  12.8459  14.1974  14.4172  14.5420
    15.1425  15.1425  15.5759  16.3645  16.3645  16.9835  17.3211  17.3613
    17.5813  17.5813  17.6124  18.0169  18.3988  18.4143  18.4143  18.4590
    22.0440  22.5714

          k = 0.0000 0.0000 0.4444 ( 12544 PWs)   bands (ev):

   -69.9368 -69.2440 -69.2231 -69.2059 -35.9903 -35.9903 -35.9873 -35.6064
   -35.6064 -35.5954 -35.1952 -35.1695 -35.1695 -35.1617 -35.1613 -35.1613
     0.9890  10.1828  12.3530  12.3530  13.4005  14.1246  14.6316  14.8076
    15.2872  15.4346  15.4346  16.3334  16.3334  16.7320  16.9436  17.3459
    17.3741  17.3741  17.6398  17.8042  18.3991  18.4296  18.4296  18.4573
    21.9107  22.7892

          k = 0.0000 0.1111 0.1111 ( 12557 PWs)   bands (ev):

   -69.9374 -69.2576 -69.2081 -69.2067 -35.9979 -35.9966 -35.9949 -35.6264
   -35.6140 -35.5999 -35.1707 -35.1613 -35.1609 -35.1576 -35.1552 -35.1488
     0.4850  11.5393  12.6986  12.8568  12.9537  13.9960  14.0038  14.2122
    14.4869  14.5134  16.0038  16.1626  16.1925  17.2486  17.2726  17.7258
    17.7831  18.2259  18.2638  18.3177  18.3241  18.4100  18.4787  18.5422
    22.0239  23.4380

          k = 0.0000 0.1111 0.2222 ( 12548 PWs)   bands (ev):

   -69.9372 -69.2537 -69.2119 -69.2070 -35.9964 -35.9942 -35.9916 -35.6339
   -35.6109 -35.5839 -35.1860 -35.1658 -35.1640 -35.1588 -35.1582 -35.1445
     0.6704  11.3589  12.2604  12.6630  12.6764  14.1570  14.2066  14.3622
    14.8142  14.8588  15.8416  16.2812  16.2888  17.1596  17.3233  17.4379
    17.5842  17.9113  18.1397  18.1981  18.2416  18.3837  18.5580  18.6821
    22.2025  22.6700

          k = 0.0000 0.1111 0.3333 ( 12541 PWs)   bands (ev):

   -69.9369 -69.2482 -69.2177 -69.2070 -35.9936 -35.9914 -35.9890 -35.6377
   -35.6072 -35.5699 -35.2012 -35.1709 -35.1676 -35.1612 -35.1607 -35.1423
     0.8987  10.6614  12.1384  12.4160  12.9458  14.2825  14.4858  14.5911
    15.1749  15.2144  15.5802  16.2916  16.3934  16.9293  17.0975  17.2656
    17.4902  17.5574  17.8562  18.0732  18.1793  18.3773  18.6297  18.6756
    22.2615  22.4503

          k = 0.0000 0.1111 0.4444 ( 12514 PWs)   bands (ev):

   -69.9367 -69.2429 -69.2231 -69.2070 -35.9911 -35.9896 -35.9880 -35.6389
   -35.6048 -35.5615 -35.2110 -35.1741 -35.1703 -35.1630 -35.1621 -35.1414
     1.0600  10.1713  12.0376  12.2806  13.4692  14.2192  14.7009  14.8574
    15.2906  15.4586  15.4813  16.1376  16.3912  16.6629  16.8637  17.2554
    17.3553  17.4654  17.7078  17.8993  18.1431  18.3752  18.6537  18.6756
    22.1429  22.6122

          k = 0.0000 0.2222 0.2222 ( 12528 PWs)   bands (ev):

   -69.9370 -69.2501 -69.2136 -69.2091 -35.9966 -35.9919 -35.9895 -35.6525
   -35.6073 -35.5585 -35.2073 -35.1684 -35.1664 -35.1618 -35.1605 -35.1309
     0.8566  11.2947  11.5675  12.4408  12.7895  14.3575  14.3835  14.5049
    15.0141  15.1101  15.7597  16.2749  16.3627  17.0224  17.0276  17.3103
    17.4584  17.7424  18.0341  18.0882  18.2577  18.3349  18.7083  18.9941
    22.1159  22.9984

          k = 0.0000 0.2222 0.3333 ( 12527 PWs)   bands (ev):

   -69.9367 -69.2448 -69.2182 -69.2100 -35.9952 -35.9894 -35.9888 -35.6649
   -35.6032 -35.5378 -35.2254 -35.1713 -35.1696 -35.1653 -35.1628 -35.1219
     1.0865  10.6285  11.3677  12.2332  13.1802  14.5163  14.6611  14.7161
    15.2786  15.3904  15.5580  16.0663  16.4959  16.7576  16.8083  17.1020
    17.4754  17.6356  17.8027  17.9576  18.1967  18.3520  18.8357  19.0291
    21.9455  22.8234

          k = 0.0000 0.2222 0.4444 ( 12515 PWs)   bands (ev):

   -69.9366 -69.2396 -69.2232 -69.2102 -35.9929 -35.9899 -35.9877 -35.6710
   -35.6005 -35.5260 -35.2358 -35.1732 -35.1722 -35.1673 -35.1643 -35.1174
     1.2492  10.1368  11.3032  12.1146  13.6797  14.4691  14.8908  14.9677
    15.2993  15.4956  15.5994  15.8226  16.5517  16.5535  16.6111  17.0966
    17.2978  17.5285  17.8747  17.8797  18.1776  18.2114  18.9124  18.9628
    21.9126  22.7456

          k = 0.0000 0.3333 0.3333 ( 12518 PWs)   bands (ev):

   -69.9365 -69.2399 -69.2198 -69.2134 -35.9956 -35.9901 -35.9871 -35.6843
   -35.5986 -35.5125 -35.2449 -35.1721 -35.1712 -35.1699 -35.1653 -35.1071
     1.3190  10.5582  10.5959  12.0537  13.5741  14.8384  14.8434  14.8882
    15.4138  15.4602  15.5949  15.7406  16.5549  16.6480  16.6578  16.8988
    17.3282  17.6090  17.7580  17.9053  18.0436  18.5479  19.0042  19.1743
    21.2660  23.3555

          k = 0.0000 0.3333 0.4444 ( 12517 PWs)   bands (ev):

   -69.9364 -69.2348 -69.2234 -69.2150 -35.9946 -35.9923 -35.9856 -35.6944
   -35.5956 -35.4984 -35.2558 -35.1743 -35.1723 -35.1712 -35.1671 -35.0994
     1.4839  10.0900  10.5351  11.9484  14.0223  14.7992  15.0850  15.1283
    15.2953  15.5098  15.5583  15.7463  16.4015  16.4739  16.7778  16.8317
    17.2032  17.3996  17.6207  17.9740  18.1738  18.5809  19.1028  19.1297
    20.9078  23.4487

          k = 0.0000 0.4444 0.4444 ( 12492 PWs)   bands (ev):

   -69.9363 -69.2292 -69.2238 -69.2201 -35.9952 -35.9944 -35.9843 -35.7067
   -35.5923 -35.4832 -35.2667 -35.1758 -35.1755 -35.1699 -35.1690 -35.0898
     1.6509  10.0557  10.0562  11.8497  14.3681  15.0248  15.1859  15.2539
    15.2590  15.4091  15.5746  15.8590  16.3137  16.3955  16.5771  16.9870
    17.1138  17.2346  17.4094  17.8576  18.3840  18.9441  19.1749  19.2129
    20.1303  23.9982

          k = 0.1111 0.1111 0.1111 ( 12563 PWs)   bands (ev):

   -69.9373 -69.2563 -69.2081 -69.2081 -35.9972 -35.9972 -35.9926 -35.6385
   -35.5988 -35.5988 -35.1737 -35.1699 -35.1699 -35.1509 -35.1491 -35.1491
     0.5549  11.5893  12.5637  12.5637  12.8355  14.0718  14.0718  14.3895
    14.3895  14.7340  15.9885  16.2022  16.2022  17.2667  17.2667  17.6642
    17.6642  17.9911  18.1230  18.3441  18.3441  18.4195  18.6407  18.6407
    22.0741  23.5625

          k = 0.1111 0.1111 0.2222 ( 12529 PWs)   bands (ev):

   -69.9371 -69.2525 -69.2121 -69.2081 -35.9962 -35.9954 -35.9894 -35.6507
   -35.5959 -35.5784 -35.1903 -35.1803 -35.1716 -35.1512 -35.1462 -35.1439
     0.7406  11.3710  12.1431  12.2978  12.7587  14.2324  14.2775  14.4624
    14.7620  15.0132  15.8441  16.2847  16.2952  17.1761  17.2939  17.3839
    17.4078  17.7634  17.9267  18.2174  18.3451  18.3560  18.8018  18.8326
    22.2207  22.8347

          k = 0.1111 0.1111 0.3333 ( 12526 PWs)   bands (ev):

   -69.9368 -69.2470 -69.2178 -69.2081 -35.9934 -35.9933 -35.9875 -35.6582
   -35.5925 -35.5609 -35.2065 -35.1890 -35.1727 -35.1529 -35.1469 -35.1398
     0.9695  10.6461  12.0640  12.0768  13.0382  14.3637  14.5548  14.6647
    15.1709  15.2803  15.5907  16.2780  16.3443  16.9169  17.0707  17.1115
    17.4309  17.6062  17.7039  18.0895  18.2499  18.3339  18.6809  18.9923
    22.4188  22.4433

          k = 0.1111 0.1111 0.4444 ( 12521 PWs)   bands (ev):

   -69.9367 -69.2418 -69.2232 -69.2080 -35.9920 -35.9901 -35.9877 -35.6615
   -35.5903 -35.5508 -35.2165 -35.1940 -35.1733 -35.1541 -35.1484 -35.1378
     1.1313  10.1542  11.9340  12.0077  13.5364  14.3072  14.7710  14.9229
    15.3009  15.4548  15.5303  16.0758  16.2782  16.6260  16.9673  17.0969
    17.3339  17.4990  17.7090  17.9300  18.1841  18.3237  18.5237  19.0838
    22.3367  22.5622

          k = 0.1111 0.2222 0.2222 ( 12537 PWs)   bands (ev):

   -69.9369 -69.2490 -69.2136 -69.2102 -35.9966 -35.9945 -35.9871 -35.6709
   -35.5867 -35.5576 -35.2084 -35.1854 -35.1819 -35.1468 -35.1458 -35.1312
     0.9273  11.2970  11.4890  12.0698  12.8955  14.4280  14.4565  14.6311
    14.9389  15.2087  15.7702  16.2697  16.3401  17.0316  17.0916  17.2142
    17.3956  17.5441  17.7219  18.2479  18.2496  18.3215  19.0775  19.1103
    22.1895  23.1063

          k = 0.1111 0.2222 0.3333 ( 12525 PWs)   bands (ev):

   -69.9367 -69.2438 -69.2182 -69.2109 -35.9956 -35.9930 -35.9864 -35.6851
   -35.5822 -35.5362 -35.2257 -35.1940 -35.1840 -35.1477 -35.1445 -35.1219
     1.1581  10.5980  11.3112  11.9147  13.2656  14.5774  14.7280  14.8335
    15.2637  15.3763  15.5837  16.1023  16.3720  16.7651  16.9124  17.0314
    17.4419  17.4780  17.6144  18.1518  18.1974  18.2543  18.9965  19.3336
    22.0568  22.8860

          k = 0.1111 0.2222 0.4444 ( 12540 PWs)   bands (ev):

   -69.9365 -69.2388 -69.2232 -69.2110 -35.9939 -35.9918 -35.9873 -35.6923
   -35.5797 -35.5238 -35.2357 -35.1996 -35.1845 -35.1485 -35.1445 -35.1173
     1.3216  10.1073  11.2412  11.8216  13.7357  14.5291  14.9595  15.0709
    15.3032  15.4784  15.6037  15.8648  16.2988  16.5434  16.8769  16.9674
    17.3022  17.4479  17.7962  18.0500  18.1007  18.2331  18.7427  19.4751
    22.0151  22.8356

          k = 0.1111 0.3333 0.3333 ( 12528 PWs)   bands (ev):

   -69.9365 -69.2391 -69.2198 -69.2142 -35.9964 -35.9930 -35.9865 -35.7053
   -35.5768 -35.5120 -35.2439 -35.1955 -35.1927 -35.1459 -35.1445 -35.1071
     1.3918  10.5242  10.5392  11.7567  13.6359  14.8224  14.9038  15.0686
    15.3296  15.4720  15.5695  15.9048  16.3665  16.6360  16.7526  16.9584
    17.3277  17.3350  17.7952  18.0111  18.1086  18.3394  19.2233  19.4678
    21.3616  23.2563

          k = 0.1111 0.3333 0.4444 ( 12508 PWs)   bands (ev):

   -69.9364 -69.2342 -69.2234 -69.2155 -35.9957 -35.9939 -35.9868 -35.7158
   -35.5738 -35.4980 -35.2541 -35.1998 -35.1939 -35.1457 -35.1444 -35.0994
     1.5578  10.0487  10.4832  11.6623  14.0409  14.7949  15.0910  15.2863
    15.2943  15.5093  15.5622  15.9172  16.2895  16.4460  16.7281  16.9208
    17.2026  17.3106  17.8564  17.9764  18.0302  18.4887  19.0168  19.6592
    20.9538  23.3824

          k = 0.1111 0.4444 0.4444 ( 12499 PWs)   bands (ev):

   -69.9363 -69.2289 -69.2238 -69.2204 -35.9964 -35.9957 -35.9866 -35.7284
   -35.5706 -35.4831 -35.2644 -35.1997 -35.1993 -35.1447 -35.1444 -35.0898
     1.7261  10.0074  10.0093  11.5675  14.3230  14.9816  15.0453  15.2045
    15.5460  15.5519  15.6298  16.0533  16.2557  16.3616  16.5046  16.9235
    17.1740  17.2215  17.6744  17.9342  18.0854  18.8777  19.1701  19.7000
    20.1195  23.7363

          k = 0.2222 0.2222 0.2222 ( 12524 PWs)   bands (ev):

   -69.9367 -69.2458 -69.2135 -69.2135 -35.9965 -35.9965 -35.9854 -35.6966
   -35.5553 -35.5553 -35.2159 -35.1986 -35.1986 -35.1337 -35.1337 -35.1296
     1.1157  11.2708  11.3112  11.3112  13.1132  14.6222  14.6222  14.9418
    14.9418  15.3039  15.7316  16.2793  16.2793  16.9691  16.9691  17.2822
    17.2822  17.2921  17.4269  18.2283  18.2283  18.3814  19.4145  19.4145
    22.2834  23.0621

          k = 0.2222 0.2222 0.3333 ( 12517 PWs)   bands (ev):

   -69.9365 -69.2411 -69.2184 -69.2135 -35.9965 -35.9964 -35.9860 -35.7157
   -35.5526 -35.5292 -35.2299 -35.2115 -35.2012 -35.1336 -35.1259 -35.1201
     1.3491  10.5168  11.1353  11.2354  13.4787  14.7337  14.8919  15.1005
    15.2917  15.2954  15.6688  16.1477  16.2339  16.7241  16.7860  17.1815
    17.1843  17.3772  17.5204  18.1614  18.2195  18.3161  19.2416  19.7639
    22.2486  22.6935

          k = 0.2222 0.2222 0.4444 ( 12513 PWs)   bands (ev):

   -69.9364 -69.2363 -69.2233 -69.2135 -35.9964 -35.9947 -35.9881 -35.7257
   -35.5508 -35.5146 -35.2389 -35.2186 -35.2015 -35.1342 -35.1225 -35.1146
     1.5149  10.0324  11.0316  11.1935  13.8846  14.6645  15.1473  15.1479
    15.4030  15.4925  15.6116  15.9864  16.1834  16.4974  16.7711  17.0061
    17.1467  17.5599  17.7230  18.0964  18.1963  18.2420  18.8106  20.0142
    22.2601  22.3755

          k = 0.2222 0.3333 0.3333 ( 12520 PWs)   bands (ev):

   -69.9364 -69.2369 -69.2198 -69.2164 -35.9982 -35.9974 -35.9878 -35.7396
   -35.5400 -35.5108 -35.2418 -35.2167 -35.2133 -35.1248 -35.1234 -35.1073
     1.5865  10.4047  10.4371  11.0621  13.7832  14.8927  14.9972  15.1535
    15.4037  15.4571  15.8014  16.1022  16.2129  16.6136  16.6341  16.9614
    17.3037  17.3488  17.6459  18.1527  18.2321  18.2818  19.4024  19.9182
    21.6312  22.6891

          k = 0.2222 0.3333 0.4444 ( 12507 PWs)   bands (ev):

   -69.9363 -69.2325 -69.2234 -69.2172 -35.9986 -35.9974 -35.9904 -35.7523
   -35.5367 -35.4966 -35.2502 -35.2226 -35.2147 -35.1244 -35.1194 -35.0994
     1.7558   9.9478  10.3577  10.9827  14.0722  14.8048  15.0271  15.2237
    15.4900  15.7147  15.8750  16.1616  16.1874  16.4232  16.6200  16.8033
    17.2858  17.5120  17.7753  18.1060  18.1693  18.3879  19.0264  20.2481
    21.0538  22.6439

          k = 0.2222 0.4444 0.4444 ( 12518 PWs)   bands (ev):

   -69.9362 -69.2281 -69.2238 -69.2211 -35.9994 -35.9991 -35.9925 -35.7667
   -35.5323 -35.4829 -35.2585 -35.2223 -35.2217 -35.1195 -35.1193 -35.0898
     1.9280   9.8897   9.8970  10.8923  14.2093  14.8978  14.9497  15.0890
    15.6723  16.0014  16.1136  16.2018  16.2631  16.3987  16.5119  16.6591
    17.4067  17.4415  17.8213  17.9826  18.1010  18.7643  19.1467  19.9406
    20.4395  22.9020

          k = 0.3333 0.3333 0.3333 ( 12505 PWs)   bands (ev):

   -69.9363 -69.2336 -69.2197 -69.2197 -36.0003 -36.0003 -35.9915 -35.7673
   -35.5094 -35.5094 -35.2429 -35.2286 -35.2286 -35.1097 -35.1097 -35.1053
     1.8295  10.2647  10.2647  10.4018  13.9569  14.9418  14.9945  14.9945
    15.6693  15.6693  16.1352  16.2176  16.2176  16.5750  16.5750  16.7363
    17.4733  17.5584  17.5584  18.2037  18.2037  18.3419  19.7535  19.7535
    21.9450  21.9450

          k = 0.3333 0.3333 0.4444 ( 12520 PWs)   bands (ev):

   -69.9363 -69.2299 -69.2234 -69.2197 -36.0016 -36.0008 -35.9952 -35.7823
   -35.5085 -35.4924 -35.2479 -35.2367 -35.2299 -35.1086 -35.1020 -35.0981
     2.0036   9.8386  10.1794  10.3014  14.0866  14.8129  14.9323  15.0659
    15.7098  15.9686  16.2180  16.2967  16.3759  16.5444  16.5846  16.7064
    17.4818  17.6853  17.7211  18.2221  18.2875  18.3193  19.0861  20.2691
    21.0591  21.9460

          k = 0.3333 0.4444 0.4444 ( 12510 PWs)   bands (ev):

   -69.9362 -69.2269 -69.2238 -69.2223 -36.0029 -36.0028 -35.9991 -35.7987
   -35.5002 -35.4827 -35.2519 -35.2385 -35.2378 -35.1004 -35.1001 -35.0898
     2.1819   9.7650   9.7772  10.1656  14.0868  14.8236  14.8779  14.9432
    15.8648  16.0631  16.2507  16.2626  16.4461  16.8097  16.8156  16.9888
    17.6309  17.6604  17.7494  18.2075  18.2600  18.5485  19.0738  19.6182
    20.9367  21.9306

          k = 0.4444 0.4444 0.4444 ( 12559 PWs)   bands (ev):

   -69.9362 -69.2254 -69.2237 -69.2237 -36.0051 -36.0051 -36.0037 -35.8163
   -35.4826 -35.4826 -35.2483 -35.2461 -35.2461 -35.0901 -35.0901 -35.0894
     2.3653   9.6881   9.6881   9.7164  14.0120  14.7928  14.8333  14.8333
    16.0116  16.0116  16.2626  16.2626  16.3290  17.4463  17.4463  17.4746
    17.7439  17.7439  17.9039  18.3143  18.3143  18.3170  18.9394  18.9394
    21.2439  21.2439

 ------ SPIN DOWN ----------


          k = 0.0000 0.0000 0.0000 ( 12533 PWs)   bands (ev):

   -67.3632 -67.3024 -67.3024 -66.5337 -33.9862 -33.9862 -33.9862 -33.2303
   -33.2303 -33.2303 -33.1916 -33.1916 -33.1916 -32.6392 -32.6392 -32.6392
     0.4465  11.7276  13.3949  13.3949  13.3949  15.2107  15.2107  15.5337
    15.5337  15.5337  18.0412  18.0412  18.0412  18.7048  18.7048  20.2820
    20.2820  20.2820  20.4082  20.4082  20.5094  20.8706  20.8706  20.8706
    23.0636  23.9612

          k = 0.0000 0.0000 0.1111 ( 12537 PWs)   bands (ev):

   -67.3615 -67.3040 -67.3024 -66.5338 -33.9850 -33.9850 -33.9845 -33.2307
   -33.2293 -33.2293 -33.1927 -33.1927 -33.1920 -32.6421 -32.6404 -32.6404
     0.5154  11.7586  13.0944  13.2814  13.2814  15.2706  15.3100  15.5909
    15.6869  15.6869  17.9635  18.1036  18.1036  18.7113  18.8015  20.2363
    20.2363  20.2822  20.3477  20.3645  20.4465  20.6202  20.6202  20.8707
    23.1049  23.6077

          k = 0.0000 0.0000 0.2222 ( 12549 PWs)   bands (ev):

   -67.3567 -67.3085 -67.3023 -66.5340 -33.9818 -33.9818 -33.9800 -33.2317
   -33.2267 -33.2267 -33.1955 -33.1955 -33.1928 -32.6495 -32.6435 -32.6435
     0.6982  11.5210  12.8548  13.0421  13.0421  15.3356  15.5856  15.7546
    16.0361  16.0361  17.7481  18.2773  18.2773  18.7207  18.8139  19.9888
    19.9888  20.1243  20.1429  20.2203  20.2203  20.2826  20.3766  20.8708
    23.0982  23.2966

          k = 0.0000 0.0000 0.3333 ( 12553 PWs)   bands (ev):

   -67.3498 -67.3151 -67.3023 -66.5343 -33.9783 -33.9783 -33.9750 -33.2328
   -33.2239 -33.2239 -33.1987 -33.1987 -33.1938 -32.6579 -32.6470 -32.6470
     0.9226  10.8627  12.8212  12.8212  13.2718  15.2192  15.9596  15.9957
    16.4089  16.4089  17.4487  18.5182  18.5182  18.5893  18.7027  19.4684
    19.4684  19.7687  19.8263  20.0529  20.0529  20.2832  20.3215  20.8711
    22.9356  23.5440

          k = 0.0000 0.0000 0.4444 ( 12544 PWs)   bands (ev):

   -67.3433 -67.3214 -67.3023 -66.5344 -33.9759 -33.9759 -33.9716 -33.2335
   -33.2220 -33.2220 -33.2007 -33.2007 -33.1945 -32.6634 -32.6493 -32.6493
     1.0805  10.3966  12.6957  12.6957  13.9347  14.7947  16.2273  16.2616
    16.6610  16.6610  17.1794  18.4156  18.6443  18.7636  18.7636  19.0531
    19.0531  19.4979  19.6038  19.9437  19.9437  20.2835  20.2855  20.8712
    22.9016  23.7479

          k = 0.0000 0.1111 0.1111 ( 12557 PWs)   bands (ev):

   -67.3598 -67.3047 -67.3032 -66.5339 -33.9977 -33.9838 -33.9690 -33.2347
   -33.2283 -33.2274 -33.1973 -33.1938 -33.1864 -32.6459 -32.6416 -32.6400
     0.5844  11.7908  12.8623  13.1407  13.1804  15.3467  15.3812  15.6569
    15.8148  15.8156  17.9272  18.1263  18.1579  18.7523  18.7969  20.1520
    20.1889  20.2135  20.2575  20.3572  20.4305  20.5233  20.5312  20.7749
    23.1398  23.8584

          k = 0.0000 0.1111 0.2222 ( 12548 PWs)   bands (ev):

   -67.3552 -67.3088 -67.3035 -66.5341 -34.0070 -33.9807 -33.9528 -33.2418
   -33.2256 -33.2252 -33.2007 -33.1966 -33.1812 -32.6523 -32.6447 -32.6422
     0.7673  11.5463  12.5128  12.9613  13.0785  15.4217  15.6385  15.8237
    16.1195  16.1288  17.7349  18.2829  18.2972  18.6948  18.7301  19.8200
    19.9570  19.9616  20.0879  20.2026  20.3614  20.3782  20.4820  20.7402
    23.2072  23.4013

          k = 0.0000 0.1111 0.3333 ( 12541 PWs)   bands (ev):

   -67.3485 -67.3152 -67.3035 -66.5343 -34.0127 -33.9771 -33.9393 -33.2489
   -33.2228 -33.2227 -33.2029 -33.1998 -33.1779 -32.6582 -32.6483 -32.6460
     0.9920  10.8684  12.4342  12.7538  13.4032  15.3132  16.0057  16.0656
    16.4580  16.4685  17.4443  18.3444  18.4939  18.5277  18.6585  19.4837
    19.5001  19.7220  19.8938  19.9377  20.2482  20.3632  20.3845  20.7410
    23.1203  23.4633

          k = 0.0000 0.1111 0.4444 ( 12514 PWs)   bands (ev):

   -67.3421 -67.3214 -67.3035 -66.5345 -34.0152 -33.9748 -33.9315 -33.2532
   -33.2210 -33.2208 -33.2042 -33.2018 -33.1764 -32.6617 -32.6506 -32.6489
     1.1502  10.3980  12.3632  12.6345  14.0098  14.9059  16.3026  16.3043
    16.6884  16.7032  17.1802  18.1821  18.3308  18.7857  18.7917  19.0851
    19.3045  19.5824  19.6173  19.8231  20.1433  20.3060  20.3650  20.7426
    23.1032  23.5995

          k = 0.0000 0.2222 0.2222 ( 12528 PWs)   bands (ev):

   -67.3509 -67.3105 -67.3057 -66.5343 -34.0284 -33.9777 -33.9262 -33.2580
   -33.2253 -33.2228 -33.2044 -33.1995 -33.1667 -32.6561 -32.6479 -32.6422
     0.9508  11.4993  11.8225  12.7781  13.2517  15.6151  15.7741  15.9975
    16.3299  16.3639  17.6311  18.2674  18.3696  18.5063  18.5788  19.6837
    19.7681  19.8181  19.9193  20.0934  20.4437  20.4479  20.5156  20.6851
    23.1193  23.9534

          k = 0.0000 0.2222 0.3333 ( 12527 PWs)   bands (ev):

   -67.3447 -67.3155 -67.3067 -66.5345 -34.0434 -33.9742 -33.9052 -33.2716
   -33.2251 -33.2195 -33.2086 -33.2026 -33.1555 -32.6578 -32.6516 -32.6446
     1.1765  10.8720  11.6513  12.5971  13.6635  15.5698  16.0779  16.2383
    16.5925  16.6218  17.4053  17.9796  18.2660  18.5839  18.5889  19.5184
    19.5368  19.7119  19.7455  19.8916  20.4108  20.4112  20.4841  20.6814
    23.0117  23.7345

          k = 0.0000 0.2222 0.4444 ( 12515 PWs)   bands (ev):

   -67.3386 -67.3213 -67.3069 -66.5346 -34.0511 -33.9720 -33.8935 -33.2793
   -33.2239 -33.2175 -33.2125 -33.2046 -33.1496 -32.6572 -32.6540 -32.6479
     1.3357  10.3962  11.6143  12.4905  14.2182  15.2001  16.3418  16.4885
    16.7635  16.8472  17.1758  17.7080  18.1344  18.6119  18.8661  19.1780
    19.3754  19.6220  19.6727  19.8138  20.3955  20.4158  20.4756  20.5145
    23.0490  23.6574

          k = 0.0000 0.3333 0.3333 ( 12518 PWs)   bands (ev):

   -67.3391 -67.3172 -67.3104 -66.5346 -34.0658 -33.9709 -33.8790 -33.2895
   -33.2275 -33.2160 -33.2158 -33.2059 -33.1378 -32.6556 -32.6554 -32.6448
     1.4040  10.8321  10.8971  12.4377  14.0754  15.8684  16.0260  16.4610
    16.7898  16.7992  17.2932  17.6316  18.0637  18.5080  18.7330  19.3589
    19.5306  19.5350  19.7314  19.9250  20.1459  20.5074  20.5140  20.8577
    22.5357  24.3135

          k = 0.0000 0.3333 0.4444 ( 12517 PWs)   bands (ev):

   -67.3333 -67.3212 -67.3120 -66.5347 -34.0775 -33.9688 -33.8646 -33.2992
   -33.2278 -33.2219 -33.2137 -33.2079 -33.1283 -32.6579 -32.6521 -32.6469
     1.5649  10.3854  10.8479  12.3422  14.5568  15.6033  16.2204  16.6898
    16.8596  17.0666  17.1527  17.3660  17.9800  18.4026  18.9746  19.2076
    19.2667  19.5030  19.5850  20.0348  20.0961  20.5260  20.5915  20.7765
    22.3311  24.3169

          k = 0.0000 0.4444 0.4444 ( 12492 PWs)   bands (ev):

   -67.3273 -67.3215 -67.3175 -66.5348 -34.0915 -33.9667 -33.8489 -33.3099
   -33.2300 -33.2283 -33.2113 -33.2100 -33.1167 -32.6605 -32.6484 -32.6468
     1.7272  10.3719  10.3759  12.2525  14.9225  15.9622  15.9823  16.8461
    16.9118  16.9142  17.1167  17.5508  17.9121  18.1334  19.0469  19.0623
    19.3046  19.4723  19.5336  19.7153  20.2628  20.5387  20.7787  20.8778
    21.8697  24.8268

          k = 0.1111 0.1111 0.1111 ( 12563 PWs)   bands (ev):

   -67.3582 -67.3047 -67.3047 -66.5340 -34.0110 -33.9679 -33.9679 -33.2357
   -33.2304 -33.2304 -33.1953 -33.1953 -33.1825 -32.6496 -32.6409 -32.6409
     0.6534  11.8237  12.7773  12.7773  13.1937  15.4348  15.4348  15.7980
    15.7980  15.9800  17.8994  18.1709  18.1709  18.7707  18.7707  20.0060
    20.1165  20.1422  20.1422  20.4008  20.4008  20.4022  20.6832  20.6832
    23.1812  24.0626

          k = 0.1111 0.1111 0.2222 ( 12529 PWs)   bands (ev):

   -67.3538 -67.3090 -67.3047 -66.5342 -34.0253 -33.9651 -33.9471 -33.2431
   -33.2377 -33.2284 -33.1952 -33.1924 -33.1768 -32.6554 -32.6432 -32.6427
     0.8365  11.5663  12.4037  12.5863  13.2016  15.5071  15.6957  15.9216
    16.1320  16.2325  17.7286  18.2747  18.2896  18.6803  18.6805  19.6474
    19.7885  19.9248  19.9927  20.2990  20.4494  20.4716  20.5382  20.7273
    23.2586  23.5524

          k = 0.1111 0.1111 0.3333 ( 12526 PWs)   bands (ev):

   -67.3472 -67.3152 -67.3046 -66.5344 -34.0351 -33.9619 -33.9300 -33.2512
   -33.2453 -33.2237 -33.1934 -33.1921 -33.1725 -32.6594 -32.6473 -32.6459
     1.0616  10.8681  12.3700  12.3992  13.5155  15.4059  16.0631  16.1449
    16.4747  16.5169  17.4470  18.2332  18.3237  18.6236  18.6586  19.2550
    19.5476  19.7155  19.8096  20.1302  20.3509  20.3764  20.5342  20.6671
    23.2545  23.4791

          k = 0.1111 0.1111 0.4444 ( 12521 PWs)   bands (ev):

   -67.3410 -67.3213 -67.3046 -66.5345 -34.0399 -33.9597 -33.9202 -33.2561
   -33.2500 -33.2196 -33.1936 -33.1920 -33.1704 -32.6602 -32.6519 -32.6477
     1.2203  10.3943  12.2895  12.3296  14.0813  15.0141  16.3634  16.3824
    16.6155  16.8203  17.1839  17.9897  18.2136  18.7873  18.8094  19.0183
    19.2800  19.6464  19.6873  20.0052  20.1069  20.3069  20.5546  20.6460
    23.2677  23.5691

          k = 0.1111 0.2222 0.2222 ( 12537 PWs)   bands (ev):

   -67.3496 -67.3105 -67.3070 -66.5343 -34.0483 -33.9562 -33.9255 -33.2585
   -33.2399 -33.2386 -33.1902 -33.1872 -33.1653 -32.6594 -32.6450 -32.6423
     1.0204  11.5143  11.7666  12.3872  13.3761  15.7045  15.8409  16.1111
    16.3314  16.3850  17.6417  18.2108  18.2629  18.5893  18.6018  19.4316
    19.5366  19.8335  19.8427  20.2440  20.4424  20.4846  20.7327  20.8287
    23.2305  23.9474

          k = 0.1111 0.2222 0.3333 ( 12525 PWs)   bands (ev):

   -67.3436 -67.3156 -67.3077 -66.5345 -34.0653 -33.9522 -33.9038 -33.2731
   -33.2495 -33.2376 -33.1874 -33.1850 -33.1547 -32.6603 -32.6480 -32.6443
     1.2468  10.8576  11.6118  12.2612  13.7621  15.6579  16.1555  16.3305
    16.5272  16.6654  17.4263  17.9406  18.1450  18.6008  18.6609  19.2782
    19.3046  19.7070  19.8063  20.0898  20.3805  20.4335  20.7265  20.8365
    23.1215  23.7699

          k = 0.1111 0.2222 0.4444 ( 12540 PWs)   bands (ev):

   -67.3377 -67.3212 -67.3078 -66.5346 -34.0741 -33.9500 -33.8914 -33.2811
   -33.2553 -33.2364 -33.1856 -33.1848 -33.1489 -32.6575 -32.6525 -32.6463
     1.4066  10.3802  11.5688  12.1838  14.2831  15.2976  16.4054  16.5687
    16.6594  16.9777  17.1956  17.6110  18.0539  18.6269  18.8412  19.0778
    19.1793  19.7031  19.8061  19.9542  20.3197  20.3831  20.4881  20.8722
    23.1473  23.7265

          k = 0.1111 0.3333 0.3333 ( 12528 PWs)   bands (ev):

   -67.3383 -67.3172 -67.3112 -66.5346 -34.0884 -33.9478 -33.8786 -33.2919
   -33.2522 -33.2488 -33.1844 -33.1826 -33.1376 -32.6592 -32.6492 -32.6441
     1.4753  10.8125  10.8549  12.1299  14.1548  15.9505  16.0733  16.5540
    16.6813  16.8733  17.3269  17.6480  17.9844  18.5074  18.7407  19.0989
    19.3925  19.5427  19.9240  19.9250  20.2618  20.4113  20.8986  20.9781
    22.5961  24.2111

          k = 0.1111 0.3333 0.4444 ( 12508 PWs)   bands (ev):

   -67.3327 -67.3211 -67.3126 -66.5347 -34.1007 -33.9455 -33.8642 -33.3020
   -33.2581 -33.2511 -33.1828 -33.1821 -33.1281 -32.6573 -32.6497 -32.6455
     1.6370  10.3570  10.8093  12.0489  14.6043  15.6786  16.2442  16.7774
    16.8628  17.0625  17.1776  17.4110  17.9285  18.4038  18.8157  18.9914
    19.3559  19.5851  19.7345  19.9966  20.1410  20.5095  20.7322  21.0731
    22.3521  24.2449

          k = 0.1111 0.4444 0.4444 ( 12499 PWs)   bands (ev):

   -67.3270 -67.3215 -67.3178 -66.5348 -34.1150 -33.9432 -33.8489 -33.3131
   -33.2602 -33.2595 -33.1815 -33.1813 -33.1166 -32.6579 -32.6468 -32.6455
     1.8004  10.3374  10.3389  11.9664  14.9331  15.9996  16.0394  16.8469
    16.9394  17.0015  17.1565  17.6200  17.8812  18.1383  18.6869  19.0344
    19.4391  19.5800  19.6276  19.9199  19.9910  20.7273  20.8656  21.1313
    21.8235  24.5856

          k = 0.2222 0.2222 0.2222 ( 12524 PWs)   bands (ev):

   -67.3459 -67.3105 -67.3105 -66.5344 -34.0771 -33.9235 -33.9235 -33.2609
   -33.2609 -33.2582 -33.1742 -33.1742 -33.1594 -32.6624 -32.6427 -32.6427
     1.2054  11.5058  11.6334  11.6334  13.6118  15.9657  15.9657  16.3812
    16.3962  16.3962  17.6135  18.0861  18.0861  18.6337  18.6337  19.2217
    19.2256  19.7409  19.7409  20.3384  20.4372  20.4372  21.0803  21.0803
    23.3974  23.8155

          k = 0.2222 0.2222 0.3333 ( 12517 PWs)   bands (ev):

   -67.3405 -67.3158 -67.3105 -66.5346 -34.0991 -33.9212 -33.8968 -33.2780
   -33.2757 -33.2611 -33.1692 -33.1638 -33.1499 -32.6614 -32.6443 -32.6432
     1.4338  10.8145  11.4943  11.5405  14.0011  15.8918  16.3474  16.3802
    16.5660  16.7440  17.4590  17.8194  17.9648  18.6058  18.6852  18.9747
    19.2132  19.6810  19.7894  20.2386  20.3910  20.4170  20.9559  21.2856
    23.3375  23.6138

          k = 0.2222 0.2222 0.4444 ( 12513 PWs)   bands (ev):

   -67.3350 -67.3212 -67.3104 -66.5346 -34.1108 -33.9197 -33.8821 -33.2874
   -33.2844 -33.2621 -33.1675 -33.1589 -33.1438 -32.6568 -32.6490 -32.6435
     1.5954  10.3374  11.4094  11.5222  14.4638  15.5469  16.4099  16.6963
    16.7872  17.0774  17.2510  17.4547  17.9244  18.6155  18.7203  18.7988
    19.2517  19.7834  19.8995  20.1212  20.3449  20.3569  20.5390  21.3920
    23.3748  23.4640

          k = 0.2222 0.3333 0.3333 ( 12520 PWs)   bands (ev):

   -67.3358 -67.3171 -67.3136 -66.5346 -34.1259 -33.9088 -33.8777 -33.2978
   -33.2823 -33.2784 -33.1583 -33.1564 -33.1367 -32.6587 -32.6433 -32.6424
     1.6654  10.7519  10.7600  11.4199  14.3574  16.1252  16.1726  16.5860
    16.7956  16.9207  17.4227  17.6827  17.8431  18.5148  18.6476  18.7611
    19.3526  19.6421  19.8905  20.1764  20.3803  20.3975  21.0670  21.4862
    22.7514  23.7080

          k = 0.2222 0.3333 0.4444 ( 12507 PWs)   bands (ev):

   -67.3309 -67.3211 -67.3144 -66.5347 -34.1404 -33.9059 -33.8630 -33.3090
   -33.2910 -33.2828 -33.1559 -33.1517 -33.1276 -32.6542 -32.6451 -32.6421
     1.8297  10.2854  10.7139  11.3581  14.7231  15.8568  16.2687  16.8384
    17.0107  17.0609  17.3087  17.5572  17.8460  18.4191  18.5338  18.7261
    19.4679  19.7472  19.9626  20.0612  20.3211  20.4543  20.7322  21.6897
    22.3542  23.6882

          k = 0.2222 0.4444 0.4444 ( 12518 PWs)   bands (ev):

   -67.3261 -67.3215 -67.3186 -66.5347 -34.1564 -33.9020 -33.8487 -33.3210
   -33.2947 -33.2940 -33.1505 -33.1502 -33.1165 -32.6512 -32.6427 -32.6422
     1.9963  10.2480  10.2522  11.2852  14.9444  16.0838  16.1701  16.6779
    17.2034  17.2399  17.3384  17.7454  17.8434  18.1949  18.3675  18.7275
    19.6941  19.7350  19.8893  19.9599  20.2299  20.6466  20.8151  21.6136
    21.8565  23.8904

          k = 0.3333 0.3333 0.3333 ( 12505 PWs)   bands (ev):

   -67.3321 -67.3171 -67.3171 -66.5347 -34.1565 -33.8766 -33.8766 -33.3056
   -33.3056 -33.2997 -33.1401 -33.1401 -33.1331 -32.6543 -32.6403 -32.6403
     1.9014  10.6412  10.6412  10.7353  14.6292  16.0840  16.4466  16.4466
    17.0958  17.0958  17.5102  17.7473  17.7473  18.4507  18.5256  18.5256
    19.5065  19.8515  19.8515  20.2898  20.3762  20.3762  21.3676  21.3676
    22.9691  22.9691

          k = 0.3333 0.3333 0.4444 ( 12520 PWs)   bands (ev):

   -67.3281 -67.3211 -67.3171 -66.5347 -34.1732 -33.8759 -33.8589 -33.3182
   -33.3143 -33.3073 -33.1375 -33.1310 -33.1254 -32.6488 -32.6410 -32.6390
     2.0697  10.2052  10.5720  10.6657  14.8543  16.0353  16.2876  16.6329
    17.3155  17.3327  17.5109  17.7318  17.8244  18.2900  18.4214  18.5173
    19.6668  19.9043  20.0204  20.2102  20.3907  20.4083  20.7761  21.7176
    22.3424  23.1532

          k = 0.3333 0.4444 0.4444 ( 12510 PWs)   bands (ev):

   -67.3248 -67.3214 -67.3199 -66.5347 -34.1912 -33.8674 -33.8485 -33.3298
   -33.3212 -33.3204 -33.1282 -33.1279 -33.1164 -32.6436 -32.6385 -32.6383
     2.2412  10.1492  10.1587  10.5579  14.9332  16.1687  16.2823  16.4796
    17.5926  17.5995  17.6672  17.8603  17.8667  18.1336  18.3002  18.4925
    19.8640  19.9513  20.0418  20.1416  20.4199  20.4855  20.7229  21.2313
    22.3663  23.1198

          k = 0.4444 0.4444 0.4444 ( 12559 PWs)   bands (ev):

   -67.3232 -67.3214 -67.3214 -66.5347 -34.2103 -33.8484 -33.8484 -33.3355
   -33.3355 -33.3345 -33.1167 -33.1167 -33.1158 -32.6381 -32.6361 -32.6361
     2.4169  10.0870  10.0870  10.1095  14.9150  16.2387  16.3300  16.3300
    17.8950  17.8950  17.9811  17.9811  17.9853  18.0025  18.3665  18.3665
    20.0133  20.0712  20.0712  20.2606  20.3449  20.3449  20.7350  20.7350
    22.6690  22.6690

     the Fermi energy is    18.7319 ev

!    total energy              =   -1345.17093378 Ry
     Harris-Foulkes estimate   =   -1345.17093378 Ry
     estimated scf accuracy    <          5.3E-10 Ry

     total all-electron energy =    -10291.772569 Ry

     The total energy is the sum of the following terms:

     one-electron contribution =    -446.73774299 Ry
     hartree contribution      =     269.20284844 Ry
     xc contribution           =    -117.08738802 Ry
     ewald contribution        =    -711.61403732 Ry
     one-center paw contrib.   =    -338.93470473 Ry
     smearing contrib. (-TS)   =       0.00009085 Ry

     total magnetization       =     7.68 Bohr mag/cell
     absolute magnetization    =     8.03 Bohr mag/cell

     convergence has been achieved in  28 iterations

     Forces acting on atoms (Ry/au):


     negative rho (up, down):  0.000E+00 1.967E-04
     atom    1 type  1   force =     0.00000000    0.00000000    0.00000000
     atom    2 type  1   force =     0.00000000    0.00000000    0.00000000
     atom    3 type  1   force =     0.00000000    0.00000000    0.00000000
     atom    4 type  1   force =     0.00000000    0.00000000    0.00000000
     atom    5 type  2   force =     0.00000000    0.00000000    0.00000000

     Total force =     0.000000     Total SCF correction =     0.000000


     entering subroutine stress ...


     negative rho (up, down):  0.000E+00 1.967E-04
          total   stress  (Ry/bohr**3)                   (kbar)     P=  149.95
   0.00101937   0.00000000   0.00000000        149.95      0.00      0.00
   0.00000000   0.00101937   0.00000000          0.00    149.95      0.00
   0.00000000   0.00000000   0.00101937          0.00      0.00    149.95


     Writing output data file config.save
 
     init_run     :     21.97s CPU     22.53s WALL (       1 calls)
     electrons    :   1695.06s CPU   1726.48s WALL (       1 calls)
     forces       :      4.96s CPU      5.34s WALL (       1 calls)
     stress       :     15.76s CPU     16.82s WALL (       1 calls)

     Called by init_run:
     wfcinit      :     16.74s CPU     16.88s WALL (       1 calls)
     potinit      :      1.84s CPU      1.88s WALL (       1 calls)

     Called by electrons:
     c_bands      :   1074.15s CPU   1081.57s WALL (      28 calls)
     sum_band     :    529.35s CPU    542.25s WALL (      28 calls)
     v_of_rho     :     30.20s CPU     30.97s WALL (      29 calls)
     newd         :     43.99s CPU     53.86s WALL (      29 calls)
     mix_rho      :      5.46s CPU      5.53s WALL (      28 calls)

     Called by c_bands:
     init_us_2    :      8.13s CPU      8.26s WALL (    4130 calls)
     cegterg      :   1045.82s CPU   1052.86s WALL (    1960 calls)

     Called by sum_band:
     sum_band:bec :      0.08s CPU      0.08s WALL (    1960 calls)
     addusdens    :    136.88s CPU    147.07s WALL (      28 calls)

     Called by *egterg:
     h_psi        :    958.63s CPU    964.96s WALL (    6375 calls)
     s_psi        :     11.32s CPU     11.40s WALL (    6375 calls)
     g_psi        :      2.14s CPU      2.16s WALL (    4345 calls)
     cdiaghg      :     18.41s CPU     18.63s WALL (    6305 calls)

     Called by h_psi:
     add_vuspsi   :     10.70s CPU     10.82s WALL (    6375 calls)

     General routines
     calbec       :     19.03s CPU     19.26s WALL (    8685 calls)
     fft          :     31.26s CPU     31.59s WALL (     933 calls)
     ffts         :      0.13s CPU      0.13s WALL (     114 calls)
     fftw         :    353.13s CPU    355.22s WALL (  463578 calls)
     interpolate  :      4.69s CPU      4.70s WALL (     114 calls)
     davcio       :      0.08s CPU      0.42s WALL (      70 calls)
 
     Parallel routines
     fft_scatter  :    203.20s CPU    204.96s WALL (  464625 calls)

     PAW routines
     PAW_pot      :     11.43s CPU     12.03s WALL (      29 calls)
     PAW_symme    :      0.04s CPU      0.04s WALL (      57 calls)
 
     PWSCF        : 28m58.52s CPU    29m32.48s WALL

 
   This run was terminated on:  22:30:46  27Oct2020            

=------------------------------------------------------------------------------=
   JOB DONE.
=------------------------------------------------------------------------------=
