
     Program PWSCF v.5.2.0 starts on 27Oct2020 at 14:17:52 

     This program is part of the open-source Quantum ESPRESSO suite
     for quantum simulation of materials; please cite
         "P. Giannozzi et al., J. Phys.:Condens. Matter 21 395502 (2009);
          URL http://www.quantum-espresso.org", 
     in publications or presentations arising from this work. More details at
     http://www.quantum-espresso.org/quote

     Parallel version (MPI), running on     6 processors
     R & G space division:  proc/nbgrp/npool/nimage =       6
     Reading input from 4.in

     Current dimensions of program PWSCF are:
     Max number of different atomic species (ntypx) = 10
     Max number of k-points (npk) =  40000
     Max angular momentum in pseudopotentials (lmaxx) =  3

     IMPORTANT: XC functional enforced from input :
     Exchange-correlation      = PBE ( 1  4  3  4 0 0)
     Any further DFT definition will be discarded
     Please, verify this is what you really want

               file Fe_PSEUDO: wavefunction(s)  3P 3D renormalized
               file N_PSEUDO: wavefunction(s)  2S renormalized

     Subspace diagonalization in iterative solution of the eigenvalue problem:
     a serial algorithm will be used

 
     Parallelization info
     --------------------
     sticks:   dense  smooth     PW     G-vecs:    dense   smooth      PW
     Min         433     433    120                16727    16727    2460
     Max         434     434    121                16731    16731    2463
     Sum        2601    2601    725               100377   100377   14771
 
     Generating pointlists ...
     new r_m :   0.2063 (alat units)  1.4318 (a.u.) for type    1
     new r_m :   0.2063 (alat units)  1.4318 (a.u.) for type    2


     bravais-lattice index     =            0
     lattice parameter (alat)  =       6.9422  a.u.
     unit-cell volume          =     334.5777 (a.u.)^3
     number of atoms/cell      =            5
     number of atomic types    =            2
     number of electrons       =        69.00
     number of Kohn-Sham states=           42
     kinetic-energy cutoff     =     170.0000  Ry
     charge density cutoff     =     680.0000  Ry
     convergence threshold     =      1.0E-08
     mixing beta               =       0.7000
     number of iterations used =            8  plain     mixing
     Exchange-correlation      = PBE ( 1  4  3  4 0 0)

     celldm(1)=   6.942230  celldm(2)=   0.000000  celldm(3)=   0.000000
     celldm(4)=   0.000000  celldm(5)=   0.000000  celldm(6)=   0.000000

     crystal axes: (cart. coord. in units of alat)
               a(1) = (   1.000000   0.000000   0.000000 )  
               a(2) = (   0.000000   1.000000   0.000000 )  
               a(3) = (   0.000000   0.000000   1.000000 )  

     reciprocal axes: (cart. coord. in units 2 pi/alat)
               b(1) = (  1.000000  0.000000  0.000000 )  
               b(2) = (  0.000000  1.000000  0.000000 )  
               b(3) = (  0.000000  0.000000  1.000000 )  


     PseudoPot. # 1 for Fe read from file:
     pseudo/Fe_PSEUDO
     MD5 check sum: e30d5f36a6f0cb983ee41abee56170da
     Pseudo is Projector augmented-wave + core cor, Zval = 16.0
     Generated using "atomic" code by A. Dal Corso  v.6.3
     Shape of augmentation charge: PSQ
     Using radial grid of 1191 points,  6 beta functions with: 
                l(1) =   0
                l(2) =   0
                l(3) =   1
                l(4) =   1
                l(5) =   2
                l(6) =   2
     Q(r) pseudized with 0 coefficients 


     PseudoPot. # 2 for  N read from file:
     pseudo/N_PSEUDO
     MD5 check sum: 14c48229446f9f2d411169a3abcbc3fa
     Pseudo is Projector augmented-wave + core cor, Zval =  5.0
     Generated using "atomic" code by A. Dal Corso  v.6.3
     Shape of augmentation charge: PSQ
     Using radial grid of 1085 points,  4 beta functions with: 
                l(1) =   0
                l(2) =   0
                l(3) =   1
                l(4) =   1
     Q(r) pseudized with 0 coefficients 


     atomic species   valence    mass     pseudopotential
        Fe            16.00    55.84500     Fe( 1.00)
        N              5.00    14.00650      N( 1.00)

     Starting magnetic structure 
     atomic species   magnetization
        Fe           0.500
        N           -0.010

     48 Sym. Ops., with inversion, found



   Cartesian axes

     site n.     atom                  positions (alat units)
         1           Fe  tau(   1) = (   0.0000000   0.5000000   0.5000000  )
         2           Fe  tau(   2) = (   0.5000000   0.5000000   0.0000000  )
         3           Fe  tau(   3) = (   0.5000000   0.0000000   0.5000000  )
         4           Fe  tau(   4) = (   0.0000000   0.0000000   0.0000000  )
         5           N   tau(   5) = (   0.5000000   0.5000000   0.5000000  )

     number of k points=    70  Marzari-Vanderbilt smearing, width (Ry)=  0.0050
                       cart. coord. in units 2pi/alat
        k(    1) = (   0.0000000   0.0000000   0.0000000), wk =   0.0013717
        k(    2) = (   0.0000000   0.0000000   0.1111111), wk =   0.0082305
        k(    3) = (   0.0000000   0.0000000   0.2222222), wk =   0.0082305
        k(    4) = (   0.0000000   0.0000000   0.3333333), wk =   0.0082305
        k(    5) = (   0.0000000   0.0000000   0.4444444), wk =   0.0082305
        k(    6) = (   0.0000000   0.1111111   0.1111111), wk =   0.0164609
        k(    7) = (   0.0000000   0.1111111   0.2222222), wk =   0.0329218
        k(    8) = (   0.0000000   0.1111111   0.3333333), wk =   0.0329218
        k(    9) = (   0.0000000   0.1111111   0.4444444), wk =   0.0329218
        k(   10) = (   0.0000000   0.2222222   0.2222222), wk =   0.0164609
        k(   11) = (   0.0000000   0.2222222   0.3333333), wk =   0.0329218
        k(   12) = (   0.0000000   0.2222222   0.4444444), wk =   0.0329218
        k(   13) = (   0.0000000   0.3333333   0.3333333), wk =   0.0164609
        k(   14) = (   0.0000000   0.3333333   0.4444444), wk =   0.0329218
        k(   15) = (   0.0000000   0.4444444   0.4444444), wk =   0.0164609
        k(   16) = (   0.1111111   0.1111111   0.1111111), wk =   0.0109739
        k(   17) = (   0.1111111   0.1111111   0.2222222), wk =   0.0329218
        k(   18) = (   0.1111111   0.1111111   0.3333333), wk =   0.0329218
        k(   19) = (   0.1111111   0.1111111   0.4444444), wk =   0.0329218
        k(   20) = (   0.1111111   0.2222222   0.2222222), wk =   0.0329218
        k(   21) = (   0.1111111   0.2222222   0.3333333), wk =   0.0658436
        k(   22) = (   0.1111111   0.2222222   0.4444444), wk =   0.0658436
        k(   23) = (   0.1111111   0.3333333   0.3333333), wk =   0.0329218
        k(   24) = (   0.1111111   0.3333333   0.4444444), wk =   0.0658436
        k(   25) = (   0.1111111   0.4444444   0.4444444), wk =   0.0329218
        k(   26) = (   0.2222222   0.2222222   0.2222222), wk =   0.0109739
        k(   27) = (   0.2222222   0.2222222   0.3333333), wk =   0.0329218
        k(   28) = (   0.2222222   0.2222222   0.4444444), wk =   0.0329218
        k(   29) = (   0.2222222   0.3333333   0.3333333), wk =   0.0329218
        k(   30) = (   0.2222222   0.3333333   0.4444444), wk =   0.0658436
        k(   31) = (   0.2222222   0.4444444   0.4444444), wk =   0.0329218
        k(   32) = (   0.3333333   0.3333333   0.3333333), wk =   0.0109739
        k(   33) = (   0.3333333   0.3333333   0.4444444), wk =   0.0329218
        k(   34) = (   0.3333333   0.4444444   0.4444444), wk =   0.0329218
        k(   35) = (   0.4444444   0.4444444   0.4444444), wk =   0.0109739
        k(   36) = (   0.0000000   0.0000000   0.0000000), wk =   0.0013717
        k(   37) = (   0.0000000   0.0000000   0.1111111), wk =   0.0082305
        k(   38) = (   0.0000000   0.0000000   0.2222222), wk =   0.0082305
        k(   39) = (   0.0000000   0.0000000   0.3333333), wk =   0.0082305
        k(   40) = (   0.0000000   0.0000000   0.4444444), wk =   0.0082305
        k(   41) = (   0.0000000   0.1111111   0.1111111), wk =   0.0164609
        k(   42) = (   0.0000000   0.1111111   0.2222222), wk =   0.0329218
        k(   43) = (   0.0000000   0.1111111   0.3333333), wk =   0.0329218
        k(   44) = (   0.0000000   0.1111111   0.4444444), wk =   0.0329218
        k(   45) = (   0.0000000   0.2222222   0.2222222), wk =   0.0164609
        k(   46) = (   0.0000000   0.2222222   0.3333333), wk =   0.0329218
        k(   47) = (   0.0000000   0.2222222   0.4444444), wk =   0.0329218
        k(   48) = (   0.0000000   0.3333333   0.3333333), wk =   0.0164609
        k(   49) = (   0.0000000   0.3333333   0.4444444), wk =   0.0329218
        k(   50) = (   0.0000000   0.4444444   0.4444444), wk =   0.0164609
        k(   51) = (   0.1111111   0.1111111   0.1111111), wk =   0.0109739
        k(   52) = (   0.1111111   0.1111111   0.2222222), wk =   0.0329218
        k(   53) = (   0.1111111   0.1111111   0.3333333), wk =   0.0329218
        k(   54) = (   0.1111111   0.1111111   0.4444444), wk =   0.0329218
        k(   55) = (   0.1111111   0.2222222   0.2222222), wk =   0.0329218
        k(   56) = (   0.1111111   0.2222222   0.3333333), wk =   0.0658436
        k(   57) = (   0.1111111   0.2222222   0.4444444), wk =   0.0658436
        k(   58) = (   0.1111111   0.3333333   0.3333333), wk =   0.0329218
        k(   59) = (   0.1111111   0.3333333   0.4444444), wk =   0.0658436
        k(   60) = (   0.1111111   0.4444444   0.4444444), wk =   0.0329218
        k(   61) = (   0.2222222   0.2222222   0.2222222), wk =   0.0109739
        k(   62) = (   0.2222222   0.2222222   0.3333333), wk =   0.0329218
        k(   63) = (   0.2222222   0.2222222   0.4444444), wk =   0.0329218
        k(   64) = (   0.2222222   0.3333333   0.3333333), wk =   0.0329218
        k(   65) = (   0.2222222   0.3333333   0.4444444), wk =   0.0658436
        k(   66) = (   0.2222222   0.4444444   0.4444444), wk =   0.0329218
        k(   67) = (   0.3333333   0.3333333   0.3333333), wk =   0.0109739
        k(   68) = (   0.3333333   0.3333333   0.4444444), wk =   0.0329218
        k(   69) = (   0.3333333   0.4444444   0.4444444), wk =   0.0329218
        k(   70) = (   0.4444444   0.4444444   0.4444444), wk =   0.0109739

     Dense  grid:   100377 G-vectors     FFT dimensions: (  60,  60,  60)

     Largest allocated arrays     est. size (Mb)     dimensions
        Kohn-Sham Wavefunctions         1.36 Mb     (    2129,   42)
        NL pseudopotentials             2.60 Mb     (    2129,   80)
        Each V/rho on FFT grid          1.10 Mb     (   36000,   2)
        Each G-vector array             0.13 Mb     (   16729)
        G-vector shells                 0.01 Mb     (     690)
     Largest temporary arrays     est. size (Mb)     dimensions
        Auxiliary wavefunctions         5.46 Mb     (    2129,  168)
        Each subspace H/S matrix        0.43 Mb     (     168,  168)
        Each <psi_i|beta_j> matrix      0.05 Mb     (      80,   42)
        Arrays for rho mixing           4.39 Mb     (   36000,    8)

     Initial potential from superposition of free atoms

     starting charge   68.99837, renormalised to   69.00000
     Starting wfc are   44 randomized atomic wfcs
     Checking if some PAW data can be deallocated... 

     total cpu time spent up to now is        6.9 secs

     per-process dynamical memory:   141.5 Mb

     Self-consistent Calculation

     iteration #  1     ecut=   170.00 Ry     beta=0.70
     Davidson diagonalization with overlap
     ethr =  1.00E-02,  avg # of iterations =  3.1

     negative rho (up, down):  0.000E+00 5.790E-04
 
     Magnetic moment per site:
     atom:    1    charge:   12.7340    magn:    4.0985    constr:    0.0000
     atom:    2    charge:   12.7340    magn:    4.0985    constr:    0.0000
     atom:    3    charge:   12.7340    magn:    4.0985    constr:    0.0000
     atom:    4    charge:   12.6144    magn:    4.1676    constr:    0.0000
     atom:    5    charge:    4.6366    magn:    0.1185    constr:    0.0000

     total cpu time spent up to now is       23.2 secs

     total energy              =   -1344.14394731 Ry
     Harris-Foulkes estimate   =   -1343.44650589 Ry
     estimated scf accuracy    <       2.86577864 Ry

     total magnetization       =    13.88 Bohr mag/cell
     absolute magnetization    =    14.05 Bohr mag/cell

     iteration #  2     ecut=   170.00 Ry     beta=0.70
     Davidson diagonalization with overlap
     ethr =  4.15E-03,  avg # of iterations =  3.4

     negative rho (up, down):  0.000E+00 4.984E-04
 
     Magnetic moment per site:
     atom:    1    charge:   12.7250    magn:    3.8176    constr:    0.0000
     atom:    2    charge:   12.7250    magn:    3.8176    constr:    0.0000
     atom:    3    charge:   12.7250    magn:    3.8176    constr:    0.0000
     atom:    4    charge:   13.0656    magn:    3.5711    constr:    0.0000
     atom:    5    charge:    4.2270    magn:    0.0572    constr:    0.0000

     total cpu time spent up to now is       39.9 secs

     total energy              =   -1343.30124088 Ry
     Harris-Foulkes estimate   =   -1345.75000226 Ry
     estimated scf accuracy    <       8.52021817 Ry

     total magnetization       =     9.38 Bohr mag/cell
     absolute magnetization    =    10.50 Bohr mag/cell

     iteration #  3     ecut=   170.00 Ry     beta=0.70
     Davidson diagonalization with overlap
     ethr =  4.15E-03,  avg # of iterations =  3.5

     negative rho (up, down):  0.000E+00 3.782E-04
 
     Magnetic moment per site:
     atom:    1    charge:   12.8857    magn:    3.4486    constr:    0.0000
     atom:    2    charge:   12.8857    magn:    3.4486    constr:    0.0000
     atom:    3    charge:   12.8857    magn:    3.4486    constr:    0.0000
     atom:    4    charge:   12.8129    magn:    3.0186    constr:    0.0000
     atom:    5    charge:    4.0308    magn:    0.0242    constr:    0.0000

     total cpu time spent up to now is       57.1 secs

     total energy              =   -1343.62323760 Ry
     Harris-Foulkes estimate   =   -1346.18857887 Ry
     estimated scf accuracy    <      25.50308897 Ry

     total magnetization       =     3.80 Bohr mag/cell
     absolute magnetization    =     4.51 Bohr mag/cell

     iteration #  4     ecut=   170.00 Ry     beta=0.70
     Davidson diagonalization with overlap
     ethr =  4.15E-03,  avg # of iterations =  3.2

     negative rho (up, down):  0.000E+00 7.196E-04
 
     Magnetic moment per site:
     atom:    1    charge:   12.7750    magn:    2.2623    constr:    0.0000
     atom:    2    charge:   12.7750    magn:    2.2623    constr:    0.0000
     atom:    3    charge:   12.7750    magn:    2.2623    constr:    0.0000
     atom:    4    charge:   12.7291    magn:    1.8788    constr:    0.0000
     atom:    5    charge:    4.0539    magn:   -0.0485    constr:    0.0000

     total cpu time spent up to now is       73.3 secs

     total energy              =   -1345.02958524 Ry
     Harris-Foulkes estimate   =   -1345.10729840 Ry
     estimated scf accuracy    <       0.54849852 Ry

     total magnetization       =    10.75 Bohr mag/cell
     absolute magnetization    =    11.16 Bohr mag/cell

     iteration #  5     ecut=   170.00 Ry     beta=0.70
     Davidson diagonalization with overlap
     ethr =  7.95E-04,  avg # of iterations =  3.3

     negative rho (up, down):  0.000E+00 6.212E-04
 
     Magnetic moment per site:
     atom:    1    charge:   12.8339    magn:    2.1625    constr:    0.0000
     atom:    2    charge:   12.8339    magn:    2.1625    constr:    0.0000
     atom:    3    charge:   12.8339    magn:    2.1625    constr:    0.0000
     atom:    4    charge:   12.8048    magn:    2.0422    constr:    0.0000
     atom:    5    charge:    4.1107    magn:   -0.0267    constr:    0.0000

     total cpu time spent up to now is       91.5 secs

     total energy              =   -1345.11506681 Ry
     Harris-Foulkes estimate   =   -1345.20251894 Ry
     estimated scf accuracy    <       0.24165725 Ry

     total magnetization       =     9.59 Bohr mag/cell
     absolute magnetization    =     9.95 Bohr mag/cell

     iteration #  6     ecut=   170.00 Ry     beta=0.70
     Davidson diagonalization with overlap
     ethr =  3.50E-04,  avg # of iterations =  3.0

     negative rho (up, down):  0.000E+00 5.631E-04
 
     Magnetic moment per site:
     atom:    1    charge:   12.8278    magn:    2.1147    constr:    0.0000
     atom:    2    charge:   12.8278    magn:    2.1147    constr:    0.0000
     atom:    3    charge:   12.8278    magn:    2.1147    constr:    0.0000
     atom:    4    charge:   12.7938    magn:    2.3704    constr:    0.0000
     atom:    5    charge:    4.1126    magn:    0.0065    constr:    0.0000

     total cpu time spent up to now is      108.0 secs

     total energy              =   -1345.16192036 Ry
     Harris-Foulkes estimate   =   -1345.15768419 Ry
     estimated scf accuracy    <       0.02604192 Ry

     total magnetization       =     9.38 Bohr mag/cell
     absolute magnetization    =     9.72 Bohr mag/cell

     iteration #  7     ecut=   170.00 Ry     beta=0.70
     Davidson diagonalization with overlap
     ethr =  3.77E-05,  avg # of iterations =  1.7

     negative rho (up, down):  0.000E+00 5.025E-04
 
     Magnetic moment per site:
     atom:    1    charge:   12.8285    magn:    1.9572    constr:    0.0000
     atom:    2    charge:   12.8285    magn:    1.9572    constr:    0.0000
     atom:    3    charge:   12.8285    magn:    1.9572    constr:    0.0000
     atom:    4    charge:   12.7734    magn:    2.8102    constr:    0.0000
     atom:    5    charge:    4.1119    magn:    0.0391    constr:    0.0000

     total cpu time spent up to now is      121.7 secs

     total energy              =   -1345.16180639 Ry
     Harris-Foulkes estimate   =   -1345.16368482 Ry
     estimated scf accuracy    <       0.01804125 Ry

     total magnetization       =     9.38 Bohr mag/cell
     absolute magnetization    =     9.71 Bohr mag/cell

     iteration #  8     ecut=   170.00 Ry     beta=0.70
     Davidson diagonalization with overlap
     ethr =  2.61E-05,  avg # of iterations =  2.2

     negative rho (up, down):  0.000E+00 4.813E-04
 
     Magnetic moment per site:
     atom:    1    charge:   12.8316    magn:    1.8624    constr:    0.0000
     atom:    2    charge:   12.8316    magn:    1.8624    constr:    0.0000
     atom:    3    charge:   12.8316    magn:    1.8624    constr:    0.0000
     atom:    4    charge:   12.7759    magn:    2.7252    constr:    0.0000
     atom:    5    charge:    4.1098    magn:    0.0310    constr:    0.0000

     total cpu time spent up to now is      137.3 secs

     total energy              =   -1345.16682233 Ry
     Harris-Foulkes estimate   =   -1345.16584965 Ry
     estimated scf accuracy    <       0.00208848 Ry

     total magnetization       =     9.00 Bohr mag/cell
     absolute magnetization    =     9.35 Bohr mag/cell

     iteration #  9     ecut=   170.00 Ry     beta=0.70
     Davidson diagonalization with overlap
     ethr =  3.03E-06,  avg # of iterations =  2.1

     negative rho (up, down):  0.000E+00 5.465E-04
 
     Magnetic moment per site:
     atom:    1    charge:   12.8295    magn:    1.9949    constr:    0.0000
     atom:    2    charge:   12.8295    magn:    1.9949    constr:    0.0000
     atom:    3    charge:   12.8295    magn:    1.9949    constr:    0.0000
     atom:    4    charge:   12.7748    magn:    2.7580    constr:    0.0000
     atom:    5    charge:    4.1146    magn:    0.0387    constr:    0.0000

     total cpu time spent up to now is      151.3 secs

     total energy              =   -1345.16427122 Ry
     Harris-Foulkes estimate   =   -1345.16764695 Ry
     estimated scf accuracy    <       0.00202524 Ry

     total magnetization       =     8.59 Bohr mag/cell
     absolute magnetization    =     8.97 Bohr mag/cell

     iteration # 10     ecut=   170.00 Ry     beta=0.70
     Davidson diagonalization with overlap
     ethr =  2.94E-06,  avg # of iterations =  1.9

     negative rho (up, down):  0.000E+00 5.953E-04
 
     Magnetic moment per site:
     atom:    1    charge:   12.8280    magn:    2.0789    constr:    0.0000
     atom:    2    charge:   12.8280    magn:    2.0789    constr:    0.0000
     atom:    3    charge:   12.8280    magn:    2.0789    constr:    0.0000
     atom:    4    charge:   12.7759    magn:    2.7413    constr:    0.0000
     atom:    5    charge:    4.1181    magn:    0.0452    constr:    0.0000

     total cpu time spent up to now is      165.7 secs

     total energy              =   -1345.16406425 Ry
     Harris-Foulkes estimate   =   -1345.16571302 Ry
     estimated scf accuracy    <       0.00219862 Ry

     total magnetization       =     9.10 Bohr mag/cell
     absolute magnetization    =     9.44 Bohr mag/cell

     iteration # 11     ecut=   170.00 Ry     beta=0.70
     Davidson diagonalization with overlap
     ethr =  2.94E-06,  avg # of iterations =  1.7

     negative rho (up, down):  0.000E+00 3.894E-04
 
     Magnetic moment per site:
     atom:    1    charge:   12.8348    magn:    1.7225    constr:    0.0000
     atom:    2    charge:   12.8348    magn:    1.7225    constr:    0.0000
     atom:    3    charge:   12.8348    magn:    1.7225    constr:    0.0000
     atom:    4    charge:   12.7758    magn:    2.6961    constr:    0.0000
     atom:    5    charge:    4.1049    magn:    0.0140    constr:    0.0000

     total cpu time spent up to now is      179.4 secs

     total energy              =   -1345.16058043 Ry
     Harris-Foulkes estimate   =   -1345.16455458 Ry
     estimated scf accuracy    <       0.00283704 Ry

     total magnetization       =     9.33 Bohr mag/cell
     absolute magnetization    =     9.66 Bohr mag/cell

     iteration # 12     ecut=   170.00 Ry     beta=0.70
     Davidson diagonalization with overlap
     ethr =  2.94E-06,  avg # of iterations =  3.1

     negative rho (up, down):  0.000E+00 1.995E-04
 
     Magnetic moment per site:
     atom:    1    charge:   12.8421    magn:    1.3169    constr:    0.0000
     atom:    2    charge:   12.8421    magn:    1.3169    constr:    0.0000
     atom:    3    charge:   12.8421    magn:    1.3169    constr:    0.0000
     atom:    4    charge:   12.7750    magn:    2.6498    constr:    0.0000
     atom:    5    charge:    4.0888    magn:   -0.0228    constr:    0.0000

     total cpu time spent up to now is      197.2 secs

     total energy              =   -1345.16121558 Ry
     Harris-Foulkes estimate   =   -1345.16980890 Ry
     estimated scf accuracy    <       0.00121078 Ry

     total magnetization       =     8.19 Bohr mag/cell
     absolute magnetization    =     8.58 Bohr mag/cell

     iteration # 13     ecut=   170.00 Ry     beta=0.70
     Davidson diagonalization with overlap
     ethr =  1.75E-06,  avg # of iterations =  3.4

     negative rho (up, down):  0.000E+00 1.980E-04
 
     Magnetic moment per site:
     atom:    1    charge:   12.8443    magn:    1.2136    constr:    0.0000
     atom:    2    charge:   12.8443    magn:    1.2136    constr:    0.0000
     atom:    3    charge:   12.8443    magn:    1.2136    constr:    0.0000
     atom:    4    charge:   12.7750    magn:    2.6456    constr:    0.0000
     atom:    5    charge:    4.0844    magn:   -0.0330    constr:    0.0000

     total cpu time spent up to now is      217.7 secs

     total energy              =   -1345.16903018 Ry
     Harris-Foulkes estimate   =   -1345.17045412 Ry
     estimated scf accuracy    <       0.00058501 Ry

     total magnetization       =     7.23 Bohr mag/cell
     absolute magnetization    =     7.60 Bohr mag/cell

     iteration # 14     ecut=   170.00 Ry     beta=0.70
     Davidson diagonalization with overlap
     ethr =  8.48E-07,  avg # of iterations =  2.6

     negative rho (up, down):  0.000E+00 1.997E-04
 
     Magnetic moment per site:
     atom:    1    charge:   12.8432    magn:    1.2880    constr:    0.0000
     atom:    2    charge:   12.8432    magn:    1.2880    constr:    0.0000
     atom:    3    charge:   12.8432    magn:    1.2880    constr:    0.0000
     atom:    4    charge:   12.7750    magn:    2.6534    constr:    0.0000
     atom:    5    charge:    4.0863    magn:   -0.0277    constr:    0.0000

     total cpu time spent up to now is      233.2 secs

     total energy              =   -1345.16997231 Ry
     Harris-Foulkes estimate   =   -1345.16968918 Ry
     estimated scf accuracy    <       0.00128978 Ry

     total magnetization       =     6.98 Bohr mag/cell
     absolute magnetization    =     7.35 Bohr mag/cell

     iteration # 15     ecut=   170.00 Ry     beta=0.70
     Davidson diagonalization with overlap
     ethr =  8.48E-07,  avg # of iterations =  2.1

     negative rho (up, down):  0.000E+00 2.002E-04
 
     Magnetic moment per site:
     atom:    1    charge:   12.8437    magn:    1.2824    constr:    0.0000
     atom:    2    charge:   12.8437    magn:    1.2824    constr:    0.0000
     atom:    3    charge:   12.8437    magn:    1.2824    constr:    0.0000
     atom:    4    charge:   12.7756    magn:    2.6620    constr:    0.0000
     atom:    5    charge:    4.0853    magn:   -0.0324    constr:    0.0000

     total cpu time spent up to now is      247.9 secs

     total energy              =   -1345.17037145 Ry
     Harris-Foulkes estimate   =   -1345.17032308 Ry
     estimated scf accuracy    <       0.00077103 Ry

     total magnetization       =     7.16 Bohr mag/cell
     absolute magnetization    =     7.53 Bohr mag/cell

     iteration # 16     ecut=   170.00 Ry     beta=0.70
     Davidson diagonalization with overlap
     ethr =  8.48E-07,  avg # of iterations =  1.0

     negative rho (up, down):  0.000E+00 2.471E-04
 
     Magnetic moment per site:
     atom:    1    charge:   12.8396    magn:    1.4948    constr:    0.0000
     atom:    2    charge:   12.8396    magn:    1.4948    constr:    0.0000
     atom:    3    charge:   12.8396    magn:    1.4948    constr:    0.0000
     atom:    4    charge:   12.7751    magn:    2.6896    constr:    0.0000
     atom:    5    charge:    4.0911    magn:   -0.0198    constr:    0.0000

     total cpu time spent up to now is      260.8 secs

     total energy              =   -1345.16794464 Ry
     Harris-Foulkes estimate   =   -1345.17038628 Ry
     estimated scf accuracy    <       0.00080815 Ry

     total magnetization       =     7.16 Bohr mag/cell
     absolute magnetization    =     7.53 Bohr mag/cell

     iteration # 17     ecut=   170.00 Ry     beta=0.70
     Davidson diagonalization with overlap
     ethr =  8.48E-07,  avg # of iterations =  3.1

     negative rho (up, down):  0.000E+00 2.514E-04
 
     Magnetic moment per site:
     atom:    1    charge:   12.8393    magn:    1.5028    constr:    0.0000
     atom:    2    charge:   12.8393    magn:    1.5028    constr:    0.0000
     atom:    3    charge:   12.8393    magn:    1.5028    constr:    0.0000
     atom:    4    charge:   12.7750    magn:    2.6863    constr:    0.0000
     atom:    5    charge:    4.0918    magn:   -0.0179    constr:    0.0000

     total cpu time spent up to now is      280.1 secs

     total energy              =   -1345.17087562 Ry
     Harris-Foulkes estimate   =   -1345.17088885 Ry
     estimated scf accuracy    <       0.00091338 Ry

     total magnetization       =     7.73 Bohr mag/cell
     absolute magnetization    =     8.07 Bohr mag/cell

     iteration # 18     ecut=   170.00 Ry     beta=0.70
     Davidson diagonalization with overlap
     ethr =  8.48E-07,  avg # of iterations =  1.0

     negative rho (up, down):  0.000E+00 2.740E-04
 
     Magnetic moment per site:
     atom:    1    charge:   12.8371    magn:    1.5484    constr:    0.0000
     atom:    2    charge:   12.8371    magn:    1.5484    constr:    0.0000
     atom:    3    charge:   12.8371    magn:    1.5484    constr:    0.0000
     atom:    4    charge:   12.7746    magn:    2.6671    constr:    0.0000
     atom:    5    charge:    4.0964    magn:   -0.0043    constr:    0.0000

     total cpu time spent up to now is      292.9 secs

     total energy              =   -1345.17066768 Ry
     Harris-Foulkes estimate   =   -1345.17088122 Ry
     estimated scf accuracy    <       0.00073158 Ry

     total magnetization       =     7.75 Bohr mag/cell
     absolute magnetization    =     8.09 Bohr mag/cell

     iteration # 19     ecut=   170.00 Ry     beta=0.70
     Davidson diagonalization with overlap
     ethr =  8.48E-07,  avg # of iterations =  2.0

     negative rho (up, down):  0.000E+00 2.631E-04
 
     Magnetic moment per site:
     atom:    1    charge:   12.8375    magn:    1.5313    constr:    0.0000
     atom:    2    charge:   12.8375    magn:    1.5313    constr:    0.0000
     atom:    3    charge:   12.8375    magn:    1.5313    constr:    0.0000
     atom:    4    charge:   12.7745    magn:    2.6667    constr:    0.0000
     atom:    5    charge:    4.0956    magn:   -0.0058    constr:    0.0000

     total cpu time spent up to now is      307.9 secs

     total energy              =   -1345.17087728 Ry
     Harris-Foulkes estimate   =   -1345.17084962 Ry
     estimated scf accuracy    <       0.00011660 Ry

     total magnetization       =     7.84 Bohr mag/cell
     absolute magnetization    =     8.19 Bohr mag/cell

     iteration # 20     ecut=   170.00 Ry     beta=0.70
     Davidson diagonalization with overlap
     ethr =  1.69E-07,  avg # of iterations =  1.3

     negative rho (up, down):  0.000E+00 2.343E-04
 
     Magnetic moment per site:
     atom:    1    charge:   12.8377    magn:    1.4850    constr:    0.0000
     atom:    2    charge:   12.8377    magn:    1.4850    constr:    0.0000
     atom:    3    charge:   12.8377    magn:    1.4850    constr:    0.0000
     atom:    4    charge:   12.7742    magn:    2.6517    constr:    0.0000
     atom:    5    charge:    4.0956    magn:   -0.0032    constr:    0.0000

     total cpu time spent up to now is      320.9 secs

     total energy              =   -1345.17079268 Ry
     Harris-Foulkes estimate   =   -1345.17089675 Ry
     estimated scf accuracy    <       0.00012389 Ry

     total magnetization       =     7.80 Bohr mag/cell
     absolute magnetization    =     8.15 Bohr mag/cell

     iteration # 21     ecut=   170.00 Ry     beta=0.70
     Davidson diagonalization with overlap
     ethr =  1.69E-07,  avg # of iterations =  2.8

     negative rho (up, down):  0.000E+00 2.338E-04
 
     Magnetic moment per site:
     atom:    1    charge:   12.8379    magn:    1.4838    constr:    0.0000
     atom:    2    charge:   12.8379    magn:    1.4838    constr:    0.0000
     atom:    3    charge:   12.8379    magn:    1.4838    constr:    0.0000
     atom:    4    charge:   12.7744    magn:    2.6541    constr:    0.0000
     atom:    5    charge:    4.0953    magn:   -0.0045    constr:    0.0000

     total cpu time spent up to now is      337.7 secs

     total energy              =   -1345.17095816 Ry
     Harris-Foulkes estimate   =   -1345.17095767 Ry
     estimated scf accuracy    <       0.00000574 Ry

     total magnetization       =     7.68 Bohr mag/cell
     absolute magnetization    =     8.03 Bohr mag/cell

     iteration # 22     ecut=   170.00 Ry     beta=0.70
     Davidson diagonalization with overlap
     ethr =  8.32E-09,  avg # of iterations =  2.3

     negative rho (up, down):  0.000E+00 2.348E-04
 
     Magnetic moment per site:
     atom:    1    charge:   12.8380    magn:    1.4848    constr:    0.0000
     atom:    2    charge:   12.8380    magn:    1.4848    constr:    0.0000
     atom:    3    charge:   12.8380    magn:    1.4848    constr:    0.0000
     atom:    4    charge:   12.7744    magn:    2.6543    constr:    0.0000
     atom:    5    charge:    4.0954    magn:   -0.0044    constr:    0.0000

     total cpu time spent up to now is      352.2 secs

     total energy              =   -1345.17095902 Ry
     Harris-Foulkes estimate   =   -1345.17095940 Ry
     estimated scf accuracy    <       0.00000473 Ry

     total magnetization       =     7.67 Bohr mag/cell
     absolute magnetization    =     8.02 Bohr mag/cell

     iteration # 23     ecut=   170.00 Ry     beta=0.70
     Davidson diagonalization with overlap
     ethr =  6.85E-09,  avg # of iterations =  1.2

     negative rho (up, down):  0.000E+00 2.355E-04
 
     Magnetic moment per site:
     atom:    1    charge:   12.8381    magn:    1.4855    constr:    0.0000
     atom:    2    charge:   12.8381    magn:    1.4855    constr:    0.0000
     atom:    3    charge:   12.8381    magn:    1.4855    constr:    0.0000
     atom:    4    charge:   12.7745    magn:    2.6544    constr:    0.0000
     atom:    5    charge:    4.0953    magn:   -0.0040    constr:    0.0000

     total cpu time spent up to now is      366.1 secs

     total energy              =   -1345.17095938 Ry
     Harris-Foulkes estimate   =   -1345.17095943 Ry
     estimated scf accuracy    <       0.00000048 Ry

     total magnetization       =     7.67 Bohr mag/cell
     absolute magnetization    =     8.03 Bohr mag/cell

     iteration # 24     ecut=   170.00 Ry     beta=0.70
     Davidson diagonalization with overlap
     ethr =  6.99E-10,  avg # of iterations =  3.0

     negative rho (up, down):  0.000E+00 2.357E-04
 
     Magnetic moment per site:
     atom:    1    charge:   12.8380    magn:    1.4863    constr:    0.0000
     atom:    2    charge:   12.8380    magn:    1.4863    constr:    0.0000
     atom:    3    charge:   12.8380    magn:    1.4863    constr:    0.0000
     atom:    4    charge:   12.7744    magn:    2.6544    constr:    0.0000
     atom:    5    charge:    4.0953    magn:   -0.0039    constr:    0.0000

     total cpu time spent up to now is      383.1 secs

     total energy              =   -1345.17095965 Ry
     Harris-Foulkes estimate   =   -1345.17095968 Ry
     estimated scf accuracy    <       0.00000013 Ry

     total magnetization       =     7.68 Bohr mag/cell
     absolute magnetization    =     8.03 Bohr mag/cell

     iteration # 25     ecut=   170.00 Ry     beta=0.70
     Davidson diagonalization with overlap
     ethr =  1.87E-10,  avg # of iterations =  2.3

     negative rho (up, down):  0.000E+00 2.360E-04
 
     Magnetic moment per site:
     atom:    1    charge:   12.8381    magn:    1.4869    constr:    0.0000
     atom:    2    charge:   12.8381    magn:    1.4869    constr:    0.0000
     atom:    3    charge:   12.8381    magn:    1.4869    constr:    0.0000
     atom:    4    charge:   12.7745    magn:    2.6542    constr:    0.0000
     atom:    5    charge:    4.0954    magn:   -0.0037    constr:    0.0000

     total cpu time spent up to now is      398.8 secs

     total energy              =   -1345.17095970 Ry
     Harris-Foulkes estimate   =   -1345.17095974 Ry
     estimated scf accuracy    <       0.00000014 Ry

     total magnetization       =     7.68 Bohr mag/cell
     absolute magnetization    =     8.03 Bohr mag/cell

     iteration # 26     ecut=   170.00 Ry     beta=0.70
     Davidson diagonalization with overlap
     ethr =  1.87E-10,  avg # of iterations =  2.1

     negative rho (up, down):  0.000E+00 2.361E-04
 
     Magnetic moment per site:
     atom:    1    charge:   12.8380    magn:    1.4871    constr:    0.0000
     atom:    2    charge:   12.8380    magn:    1.4871    constr:    0.0000
     atom:    3    charge:   12.8380    magn:    1.4871    constr:    0.0000
     atom:    4    charge:   12.7745    magn:    2.6541    constr:    0.0000
     atom:    5    charge:    4.0954    magn:   -0.0037    constr:    0.0000

     total cpu time spent up to now is      413.4 secs

     End of self-consistent calculation

 ------ SPIN UP ------------


          k = 0.0000 0.0000 0.0000 ( 12533 PWs)   bands (ev):

   -69.9380 -69.2596 -69.2053 -69.2053 -35.9989 -35.9989 -35.9989 -35.6158
   -35.6158 -35.6158 -35.1587 -35.1587 -35.1587 -35.1521 -35.1521 -35.1521
     0.3455  11.4281  13.3303  13.3303  13.3303  13.8396  13.8396  14.1051
    14.1051  14.1051  16.0923  16.0923  16.0923  17.1986  17.1986  17.8462
    17.8462  18.3986  18.3986  18.3986  18.4660  18.4660  18.4660  18.4678
    21.8877  23.7552

          k = 0.0000 0.0000 0.1111 ( 12537 PWs)   bands (ev):

   -69.9378 -69.2582 -69.2067 -69.2052 -35.9979 -35.9979 -35.9975 -35.6146
   -35.6146 -35.6136 -35.1597 -35.1597 -35.1590 -35.1569 -35.1533 -35.1533
     0.4152  11.4854  12.9271  13.1103  13.1103  13.9189  13.9306  14.1574
    14.3441  14.3441  16.0277  16.1462  16.1462  17.2217  17.2574  17.8147
    17.8703  18.3140  18.3140  18.3985  18.3985  18.3988  18.4067  18.4648
    21.9637  23.2362

          k = 0.0000 0.0000 0.2222 ( 12549 PWs)   bands (ev):

   -69.9376 -69.2543 -69.2109 -69.2052 -35.9954 -35.9954 -35.9941 -35.6116
   -35.6116 -35.6076 -35.1695 -35.1626 -35.1626 -35.1597 -35.1561 -35.1561
     0.6002  11.3377  12.5043  12.7672  12.7672  14.0812  14.1354  14.3091
    14.7510  14.7510  15.8449  16.2722  16.2722  17.1944  17.2861  17.7245
    17.7689  17.9544  17.9544  18.2396  18.3991  18.4019  18.4019  18.4621
    22.1777  22.5169

          k = 0.0000 0.0000 0.3333 ( 12553 PWs)   bands (ev):

   -69.9373 -69.2486 -69.2169 -69.2052 -35.9926 -35.9926 -35.9902 -35.6081
   -35.6081 -35.6001 -35.1844 -35.1663 -35.1663 -35.1605 -35.1590 -35.1590
     0.8280  10.6696  12.4973  12.4973  12.8460  14.1977  14.4173  14.5424
    15.1428  15.1428  15.5761  16.3646  16.3646  16.9837  17.3214  17.3619
    17.5817  17.5817  17.6127  18.0174  18.3996  18.4148  18.4148  18.4593
    22.0443  22.5717

          k = 0.0000 0.0000 0.4444 ( 12544 PWs)   bands (ev):

   -69.9371 -69.2433 -69.2224 -69.2052 -35.9907 -35.9907 -35.9877 -35.6058
   -35.6058 -35.5948 -35.1946 -35.1689 -35.1689 -35.1611 -35.1606 -35.1606
     0.9888  10.1828  12.3530  12.3530  13.4007  14.1248  14.6316  14.8080
    15.2873  15.4350  15.4350  16.3331  16.3331  16.7318  16.9441  17.3465
    17.3747  17.3747  17.6401  17.8047  18.3998  18.4300  18.4300  18.4576
    21.9110  22.7895

          k = 0.0000 0.1111 0.1111 ( 12557 PWs)   bands (ev):

   -69.9378 -69.2569 -69.2074 -69.2060 -35.9983 -35.9970 -35.9953 -35.6257
   -35.6134 -35.5993 -35.1700 -35.1607 -35.1603 -35.1570 -35.1545 -35.1482
     0.4849  11.5393  12.6985  12.8568  12.9537  13.9961  14.0039  14.2125
    14.4871  14.5136  16.0040  16.1629  16.1927  17.2490  17.2730  17.7261
    17.7835  18.2262  18.2641  18.3184  18.3247  18.4103  18.4794  18.5429
    22.0243  23.4380

          k = 0.0000 0.1111 0.2222 ( 12548 PWs)   bands (ev):

   -69.9375 -69.2530 -69.2112 -69.2063 -35.9967 -35.9945 -35.9920 -35.6333
   -35.6102 -35.5833 -35.1854 -35.1652 -35.1634 -35.1581 -35.1576 -35.1439
     0.6702  11.3589  12.2604  12.6630  12.6765  14.1572  14.2067  14.3625
    14.8144  14.8590  15.8418  16.2814  16.2889  17.1599  17.3238  17.4382
    17.5845  17.9116  18.1402  18.1986  18.2423  18.3840  18.5586  18.6826
    22.2029  22.6702

          k = 0.0000 0.1111 0.3333 ( 12541 PWs)   bands (ev):

   -69.9372 -69.2474 -69.2170 -69.2063 -35.9940 -35.9918 -35.9894 -35.6370
   -35.6065 -35.5693 -35.2006 -35.1702 -35.1670 -35.1606 -35.1601 -35.1416
     0.8986  10.6614  12.1384  12.4160  12.9459  14.2827  14.4859  14.5915
    15.1752  15.2147  15.5804  16.2916  16.3934  16.9295  17.0980  17.2661
    17.4905  17.5578  17.8567  18.0737  18.1800  18.3776  18.6302  18.6762
    22.2618  22.4505

          k = 0.0000 0.1111 0.4444 ( 12514 PWs)   bands (ev):

   -69.9370 -69.2422 -69.2224 -69.2063 -35.9915 -35.9900 -35.9884 -35.6383
   -35.6041 -35.5609 -35.2103 -35.1734 -35.1696 -35.1623 -35.1615 -35.1407
     1.0598  10.1713  12.0376  12.2806  13.4694  14.2194  14.7010  14.8578
    15.2907  15.4590  15.4817  16.1375  16.3910  16.6629  16.8643  17.2558
    17.3559  17.4659  17.7083  17.8998  18.1438  18.3755  18.6542  18.6762
    22.1432  22.6124

          k = 0.0000 0.2222 0.2222 ( 12528 PWs)   bands (ev):

   -69.9373 -69.2494 -69.2129 -69.2084 -35.9970 -35.9923 -35.9899 -35.6518
   -35.6067 -35.5578 -35.2067 -35.1678 -35.1657 -35.1611 -35.1599 -35.1303
     0.8565  11.2947  11.5675  12.4408  12.7896  14.3577  14.3837  14.5051
    15.0144  15.1104  15.7599  16.2750  16.3630  17.0229  17.0280  17.3105
    17.4588  17.7427  18.0347  18.0889  18.2581  18.3353  18.7089  18.9947
    22.1162  22.9987

          k = 0.0000 0.2222 0.3333 ( 12527 PWs)   bands (ev):

   -69.9371 -69.2441 -69.2174 -69.2093 -35.9956 -35.9898 -35.9892 -35.6643
   -35.6026 -35.5371 -35.2247 -35.1706 -35.1690 -35.1647 -35.1621 -35.1212
     1.0864  10.6285  11.3677  12.2332  13.1803  14.5165  14.6613  14.7164
    15.2789  15.3907  15.5581  16.0663  16.4960  16.7580  16.8089  17.1022
    17.4757  17.6361  17.8033  17.9583  18.1971  18.3524  18.8362  19.0296
    21.9458  22.8237

          k = 0.0000 0.2222 0.4444 ( 12515 PWs)   bands (ev):

   -69.9369 -69.2389 -69.2225 -69.2095 -35.9933 -35.9902 -35.9881 -35.6703
   -35.5999 -35.5254 -35.2352 -35.1725 -35.1715 -35.1666 -35.1637 -35.1168
     1.2491  10.1368  11.3032  12.1146  13.6799  14.4693  14.8909  14.9680
    15.2995  15.4960  15.5998  15.8225  16.5518  16.5535  16.6117  17.0969
    17.2982  17.5291  17.8753  17.8802  18.1779  18.2118  18.9128  18.9634
    21.9129  22.7459

          k = 0.0000 0.3333 0.3333 ( 12518 PWs)   bands (ev):

   -69.9369 -69.2392 -69.2191 -69.2127 -35.9960 -35.9905 -35.9875 -35.6837
   -35.5980 -35.5118 -35.2443 -35.1714 -35.1706 -35.1692 -35.1647 -35.1064
     1.3188  10.5582  10.5959  12.0538  13.5743  14.8386  14.8435  14.8884
    15.4141  15.4603  15.5953  15.7406  16.5555  16.6484  16.6580  16.8988
    17.3284  17.6096  17.7587  17.9057  18.0441  18.5483  19.0047  19.1749
    21.2663  23.3558

          k = 0.0000 0.3333 0.4444 ( 12517 PWs)   bands (ev):

   -69.9367 -69.2341 -69.2227 -69.2143 -35.9950 -35.9927 -35.9860 -35.6937
   -35.5949 -35.4978 -35.2552 -35.1737 -35.1716 -35.1706 -35.1664 -35.0987
     1.4838  10.0900  10.5351  11.9484  14.0225  14.7993  15.0851  15.1284
    15.2954  15.5101  15.5583  15.7468  16.4020  16.4742  16.7780  16.8318
    17.2035  17.4002  17.6213  17.9745  18.1742  18.5813  19.1033  19.1303
    20.9081  23.4490

          k = 0.0000 0.4444 0.4444 ( 12492 PWs)   bands (ev):

   -69.9366 -69.2285 -69.2231 -69.2194 -35.9956 -35.9947 -35.9846 -35.7061
   -35.5917 -35.4826 -35.2661 -35.1752 -35.1749 -35.1692 -35.1683 -35.0892
     1.6507  10.0558  10.0563  11.8497  14.3682  15.0248  15.1860  15.2542
    15.2591  15.4092  15.5746  15.8595  16.3142  16.3960  16.5770  16.9872
    17.1139  17.2352  17.4100  17.8582  18.3844  18.9447  19.1755  19.2133
    20.1307  23.9984

          k = 0.1111 0.1111 0.1111 ( 12563 PWs)   bands (ev):

   -69.9377 -69.2556 -69.2074 -69.2074 -35.9976 -35.9976 -35.9930 -35.6379
   -35.5981 -35.5981 -35.1730 -35.1693 -35.1693 -35.1503 -35.1484 -35.1484
     0.5548  11.5894  12.5637  12.5637  12.8355  14.0720  14.0720  14.3898
    14.3898  14.7343  15.9887  16.2024  16.2024  17.2671  17.2671  17.6645
    17.6645  17.9913  18.1237  18.3444  18.3444  18.4202  18.6413  18.6413
    22.0745  23.5626

          k = 0.1111 0.1111 0.2222 ( 12529 PWs)   bands (ev):

   -69.9374 -69.2518 -69.2114 -69.2074 -35.9966 -35.9958 -35.9898 -35.6501
   -35.5952 -35.5777 -35.1896 -35.1797 -35.1710 -35.1505 -35.1455 -35.1433
     0.7404  11.3710  12.1431  12.2978  12.7589  14.2326  14.2777  14.4627
    14.7623  15.0134  15.8443  16.2849  16.2954  17.1765  17.2945  17.3842
    17.4080  17.7637  17.9274  18.2178  18.3455  18.3567  18.8024  18.8332
    22.2210  22.8349

          k = 0.1111 0.1111 0.3333 ( 12526 PWs)   bands (ev):

   -69.9372 -69.2463 -69.2171 -69.2073 -35.9938 -35.9937 -35.9879 -35.6576
   -35.5919 -35.5603 -35.2059 -35.1884 -35.1721 -35.1523 -35.1462 -35.1392
     0.9693  10.6461  12.0640  12.0768  13.0383  14.3639  14.5549  14.6650
    15.1712  15.2806  15.5909  16.2781  16.3444  16.9169  17.0712  17.1120
    17.4312  17.6065  17.7045  18.0900  18.2506  18.3343  18.6814  18.9928
    22.4191  22.4436

          k = 0.1111 0.1111 0.4444 ( 12521 PWs)   bands (ev):

   -69.9370 -69.2411 -69.2224 -69.2073 -35.9924 -35.9905 -35.9881 -35.6609
   -35.5896 -35.5501 -35.2159 -35.1933 -35.1727 -35.1534 -35.1478 -35.1372
     1.1312  10.1542  11.9340  12.0077  13.5365  14.3075  14.7710  14.9233
    15.3010  15.4551  15.5307  16.0757  16.2781  16.6260  16.9677  17.0974
    17.3344  17.4994  17.7096  17.9305  18.1848  18.3240  18.5242  19.0842
    22.3371  22.5625

          k = 0.1111 0.2222 0.2222 ( 12537 PWs)   bands (ev):

   -69.9372 -69.2483 -69.2129 -69.2095 -35.9970 -35.9949 -35.9875 -35.6703
   -35.5861 -35.5569 -35.2077 -35.1847 -35.1813 -35.1461 -35.1452 -35.1305
     0.9272  11.2970  11.4890  12.0699  12.8956  14.4282  14.4566  14.6313
    14.9392  15.2090  15.7703  16.2698  16.3403  17.0320  17.0921  17.2143
    17.3960  17.5444  17.7226  18.2483  18.2501  18.3221  19.0780  19.1109
    22.1897  23.1066

          k = 0.1111 0.2222 0.3333 ( 12525 PWs)   bands (ev):

   -69.9370 -69.2431 -69.2175 -69.2102 -35.9959 -35.9934 -35.9868 -35.6845
   -35.5816 -35.5356 -35.2250 -35.1934 -35.1834 -35.1471 -35.1439 -35.1213
     1.1580  10.5980  11.3112  11.9147  13.2657  14.5776  14.7281  14.8337
    15.2639  15.3767  15.5837  16.1024  16.3722  16.7653  16.9128  17.0316
    17.4422  17.4785  17.6149  18.1523  18.1980  18.2547  18.9970  19.3341
    22.0571  22.8863

          k = 0.1111 0.2222 0.4444 ( 12540 PWs)   bands (ev):

   -69.9369 -69.2381 -69.2225 -69.2103 -35.9943 -35.9921 -35.9876 -35.6916
   -35.5790 -35.5231 -35.2351 -35.1990 -35.1838 -35.1478 -35.1439 -35.1167
     1.3214  10.1073  11.2412  11.8217  13.7359  14.5293  14.9596  15.0712
    15.3035  15.4787  15.6039  15.8650  16.2991  16.5435  16.8772  16.9677
    17.3028  17.4483  17.7967  18.0506  18.1012  18.2335  18.7432  19.4756
    22.0154  22.8359

          k = 0.1111 0.3333 0.3333 ( 12528 PWs)   bands (ev):

   -69.9368 -69.2384 -69.2191 -69.2134 -35.9967 -35.9934 -35.9868 -35.7046
   -35.5761 -35.5114 -35.2433 -35.1949 -35.1921 -35.1452 -35.1438 -35.1065
     1.3916  10.5242  10.5392  11.7568  13.6361  14.8226  14.9039  15.0688
    15.3299  15.4721  15.5696  15.9051  16.3669  16.6363  16.7528  16.9586
    17.3279  17.3356  17.7957  18.0117  18.1091  18.3398  19.2238  19.4683
    21.3619  23.2566

          k = 0.1111 0.3333 0.4444 ( 12508 PWs)   bands (ev):

   -69.9367 -69.2335 -69.2227 -69.2148 -35.9961 -35.9943 -35.9872 -35.7152
   -35.5731 -35.4973 -35.2535 -35.1992 -35.1933 -35.1450 -35.1438 -35.0988
     1.5577  10.0488  10.4833  11.6624  14.0411  14.7950  15.0911  15.2864
    15.2945  15.5094  15.5624  15.9177  16.2899  16.4463  16.7283  16.9211
    17.2031  17.3109  17.8570  17.9768  18.0307  18.4892  19.0173  19.6596
    20.9541  23.3827

          k = 0.1111 0.4444 0.4444 ( 12499 PWs)   bands (ev):

   -69.9366 -69.2282 -69.2231 -69.2196 -35.9968 -35.9961 -35.9870 -35.7278
   -35.5699 -35.4825 -35.2637 -35.1991 -35.1987 -35.1440 -35.1438 -35.0891
     1.7259  10.0074  10.0093  11.5675  14.3232  14.9817  15.0454  15.2046
    15.5462  15.5519  15.6301  16.0538  16.2561  16.3621  16.5046  16.9241
    17.1742  17.2217  17.6750  17.9348  18.0858  18.8782  19.1707  19.7004
    20.1199  23.7365

          k = 0.2222 0.2222 0.2222 ( 12524 PWs)   bands (ev):

   -69.9371 -69.2451 -69.2128 -69.2128 -35.9969 -35.9969 -35.9858 -35.6959
   -35.5546 -35.5546 -35.2153 -35.1979 -35.1979 -35.1330 -35.1330 -35.1289
     1.1156  11.2708  11.3112  11.3112  13.1134  14.6224  14.6224  14.9420
    14.9420  15.3043  15.7316  16.2796  16.2796  16.9694  16.9694  17.2826
    17.2826  17.2924  17.4275  18.2287  18.2287  18.3821  19.4150  19.4150
    22.2837  23.0622

          k = 0.2222 0.2222 0.3333 ( 12517 PWs)   bands (ev):

   -69.9369 -69.2403 -69.2177 -69.2128 -35.9968 -35.9968 -35.9864 -35.7151
   -35.5519 -35.5286 -35.2293 -35.2109 -35.2006 -35.1330 -35.1252 -35.1194
     1.3490  10.5168  11.1353  11.2354  13.4789  14.7339  14.8920  15.1007
    15.2918  15.2958  15.6688  16.1481  16.2342  16.7243  16.7863  17.1819
    17.1849  17.3775  17.5208  18.1618  18.2200  18.3167  19.2421  19.7644
    22.2489  22.6937

          k = 0.2222 0.2222 0.4444 ( 12513 PWs)   bands (ev):

   -69.9368 -69.2356 -69.2226 -69.2128 -35.9968 -35.9951 -35.9885 -35.7250
   -35.5501 -35.5139 -35.2383 -35.2180 -35.2009 -35.1336 -35.1219 -35.1140
     1.5147  10.0324  11.0317  11.1936  13.8848  14.6647  15.1474  15.1481
    15.4032  15.4925  15.6117  15.9869  16.1838  16.4975  16.7715  17.0067
    17.1469  17.5602  17.7235  18.0969  18.1969  18.2425  18.8111  20.0147
    22.2604  22.3757

          k = 0.2222 0.3333 0.3333 ( 12520 PWs)   bands (ev):

   -69.9367 -69.2362 -69.2190 -69.2157 -35.9986 -35.9977 -35.9882 -35.7389
   -35.5393 -35.5101 -35.2412 -35.2161 -35.2127 -35.1242 -35.1227 -35.1066
     1.5864  10.4047  10.4371  11.0621  13.7834  14.8928  14.9973  15.1537
    15.4038  15.4571  15.8015  16.1027  16.2134  16.6140  16.6342  16.9620
    17.3041  17.3492  17.6463  18.1532  18.2326  18.2824  19.4028  19.9186
    21.6314  22.6894

          k = 0.2222 0.3333 0.4444 ( 12507 PWs)   bands (ev):

   -69.9367 -69.2318 -69.2227 -69.2165 -35.9989 -35.9978 -35.9907 -35.7516
   -35.5360 -35.4959 -35.2496 -35.2220 -35.2141 -35.1237 -35.1188 -35.0988
     1.7556   9.9478  10.3578  10.9827  14.0724  14.8049  15.0273  15.2237
    15.4900  15.7148  15.8752  16.1620  16.1879  16.4234  16.6203  16.8039
    17.2861  17.5123  17.7757  18.1066  18.1699  18.3884  19.0269  20.2485
    21.0541  22.6441

          k = 0.2222 0.4444 0.4444 ( 12518 PWs)   bands (ev):

   -69.9366 -69.2274 -69.2231 -69.2204 -35.9998 -35.9995 -35.9928 -35.7660
   -35.5316 -35.4823 -35.2578 -35.2217 -35.2211 -35.1189 -35.1186 -35.0891
     1.9278   9.8898   9.8971  10.8924  14.2096  14.8979  14.9498  15.0890
    15.6722  16.0015  16.1138  16.2024  16.2636  16.3988  16.5123  16.6597
    17.4069  17.4418  17.8216  17.9833  18.1015  18.7648  19.1473  19.9409
    20.4399  22.9023

          k = 0.3333 0.3333 0.3333 ( 12505 PWs)   bands (ev):

   -69.9367 -69.2329 -69.2190 -69.2190 -36.0006 -36.0006 -35.9918 -35.7666
   -35.5087 -35.5087 -35.2423 -35.2279 -35.2279 -35.1091 -35.1091 -35.1046
     1.8294  10.2647  10.2647  10.4019  13.9571  14.9420  14.9946  14.9946
    15.6693  15.6693  16.1352  16.2181  16.2181  16.5753  16.5753  16.7369
    17.4736  17.5587  17.5587  18.2042  18.2042  18.3426  19.7539  19.7539
    21.9453  21.9453

          k = 0.3333 0.3333 0.4444 ( 12520 PWs)   bands (ev):

   -69.9366 -69.2292 -69.2227 -69.2190 -36.0020 -36.0012 -35.9955 -35.7816
   -35.5078 -35.4918 -35.2473 -35.2360 -35.2293 -35.1080 -35.1013 -35.0974
     2.0035   9.8387  10.1795  10.3015  14.0869  14.8130  14.9324  15.0659
    15.7098  15.9686  16.2185  16.2972  16.3761  16.5446  16.5852  16.7068
    17.4821  17.6857  17.7213  18.2226  18.2882  18.3198  19.0866  20.2694
    21.0594  21.9464

          k = 0.3333 0.4444 0.4444 ( 12510 PWs)   bands (ev):

   -69.9365 -69.2262 -69.2231 -69.2216 -36.0033 -36.0032 -35.9995 -35.7980
   -35.4996 -35.4821 -35.2512 -35.2378 -35.2372 -35.0998 -35.0994 -35.0891
     2.1817   9.7651   9.7773  10.1656  14.0871  14.8237  14.8780  14.9433
    15.8648  16.0631  16.2512  16.2632  16.4467  16.8099  16.8159  16.9892
    17.6312  17.6607  17.7496  18.2082  18.2605  18.5490  19.0743  19.6185
    20.9370  21.9309

          k = 0.4444 0.4444 0.4444 ( 12559 PWs)   bands (ev):

   -69.9365 -69.2247 -69.2230 -69.2230 -36.0054 -36.0054 -36.0041 -35.8157
   -35.4819 -35.4819 -35.2477 -35.2455 -35.2455 -35.0895 -35.0895 -35.0887
     2.3651   9.6881   9.6881   9.7165  14.0123  14.7929  14.8334  14.8334
    16.0115  16.0115  16.2631  16.2631  16.3296  17.4466  17.4466  17.4747
    17.7442  17.7442  17.9041  18.3148  18.3148  18.3177  18.9398  18.9398
    21.2443  21.2443

 ------ SPIN DOWN ----------


          k = 0.0000 0.0000 0.0000 ( 12533 PWs)   bands (ev):

   -67.3637 -67.3029 -67.3029 -66.5338 -33.9869 -33.9869 -33.9869 -33.2308
   -33.2308 -33.2308 -33.1921 -33.1921 -33.1921 -32.6393 -32.6393 -32.6393
     0.4461  11.7276  13.3946  13.3946  13.3946  15.2106  15.2106  15.5334
    15.5334  15.5334  18.0409  18.0409  18.0409  18.7043  18.7043  20.2814
    20.2814  20.2814  20.4080  20.4080  20.5090  20.8705  20.8705  20.8705
    23.0631  23.9612

          k = 0.0000 0.0000 0.1111 ( 12537 PWs)   bands (ev):

   -67.3620 -67.3045 -67.3029 -66.5338 -33.9857 -33.9857 -33.9852 -33.2311
   -33.2297 -33.2297 -33.1932 -33.1932 -33.1924 -32.6422 -32.6405 -32.6405
     0.5151  11.7585  13.0941  13.2810  13.2810  15.2704  15.3099  15.5906
    15.6865  15.6865  17.9632  18.1033  18.1033  18.7108  18.8011  20.2356
    20.2356  20.2815  20.3475  20.3643  20.4462  20.6201  20.6201  20.8705
    23.1045  23.6076

          k = 0.0000 0.0000 0.2222 ( 12549 PWs)   bands (ev):

   -67.3572 -67.3090 -67.3029 -66.5341 -33.9826 -33.9826 -33.9808 -33.2321
   -33.2272 -33.2272 -33.1960 -33.1960 -33.1933 -32.6495 -32.6435 -32.6435
     0.6978  11.5209  12.8545  13.0418  13.0418  15.3355  15.5855  15.7543
    16.0358  16.0358  17.7478  18.2770  18.2770  18.7202  18.8136  19.9885
    19.9885  20.1242  20.1426  20.2199  20.2199  20.2820  20.3764  20.8707
    23.0980  23.2962

          k = 0.0000 0.0000 0.3333 ( 12553 PWs)   bands (ev):

   -67.3504 -67.3156 -67.3028 -66.5343 -33.9790 -33.9790 -33.9757 -33.2332
   -33.2243 -33.2243 -33.1991 -33.1991 -33.1943 -32.6579 -32.6470 -32.6470
     0.9222  10.8624  12.8208  12.8208  13.2716  15.2191  15.9594  15.9953
    16.4086  16.4086  17.4485  18.5179  18.5179  18.5890  18.7023  19.4682
    19.4682  19.7686  19.8261  20.0524  20.0524  20.2825  20.3213  20.8709
    22.9353  23.5436

          k = 0.0000 0.0000 0.4444 ( 12544 PWs)   bands (ev):

   -67.3439 -67.3220 -67.3028 -66.5344 -33.9766 -33.9766 -33.9724 -33.2339
   -33.2225 -33.2225 -33.2011 -33.2011 -33.1949 -32.6634 -32.6493 -32.6493
     1.0801  10.3963  12.6953  12.6953  13.9345  14.7946  16.2268  16.2615
    16.6607  16.6607  17.1793  18.4153  18.6438  18.7634  18.7634  19.0529
    19.0529  19.4978  19.6035  19.9431  19.9431  20.2829  20.2853  20.8711
    22.9012  23.7475

          k = 0.0000 0.1111 0.1111 ( 12557 PWs)   bands (ev):

   -67.3604 -67.3052 -67.3037 -66.5339 -33.9985 -33.9845 -33.9698 -33.2352
   -33.2287 -33.2278 -33.1978 -33.1943 -33.1868 -32.6459 -32.6417 -32.6401
     0.5840  11.7907  12.8620  13.1404  13.1800  15.3465  15.3810  15.6565
    15.8144  15.8153  17.9269  18.1260  18.1576  18.7519  18.7965  20.1515
    20.1882  20.2134  20.2570  20.3570  20.4300  20.5232  20.5310  20.7747
    23.1394  23.8583

          k = 0.0000 0.1111 0.2222 ( 12548 PWs)   bands (ev):

   -67.3557 -67.3093 -67.3040 -66.5341 -34.0078 -33.9814 -33.9536 -33.2423
   -33.2261 -33.2256 -33.2011 -33.1971 -33.1816 -32.6523 -32.6448 -32.6423
     0.7669  11.5461  12.5125  12.9609  13.0782  15.4216  15.6384  15.8234
    16.1192  16.1285  17.7347  18.2826  18.2969  18.6944  18.7297  19.8199
    19.9567  19.9613  20.0873  20.2024  20.3611  20.3776  20.4816  20.7401
    23.2069  23.4010

          k = 0.0000 0.1111 0.3333 ( 12541 PWs)   bands (ev):

   -67.3491 -67.3157 -67.3040 -66.5343 -34.0134 -33.9779 -33.9400 -33.2494
   -33.2232 -33.2231 -33.2033 -33.2002 -33.1783 -32.6582 -32.6483 -32.6460
     0.9916  10.8682  12.4339  12.7535  13.4030  15.3130  16.0056  16.0652
    16.4576  16.4682  17.4440  18.3442  18.4935  18.5274  18.6581  19.4835
    19.4999  19.7217  19.8937  19.9371  20.2477  20.3626  20.3842  20.7408
    23.1200  23.4628

          k = 0.0000 0.1111 0.4444 ( 12514 PWs)   bands (ev):

   -67.3426 -67.3219 -67.3040 -66.5345 -34.0160 -33.9755 -33.9322 -33.2537
   -33.2214 -33.2212 -33.2047 -33.2022 -33.1769 -32.6617 -32.6507 -32.6489
     1.1499  10.3977  12.3628  12.6341  14.0096  14.9057  16.3025  16.3039
    16.6880  16.7029  17.1800  18.1818  18.3305  18.7854  18.7914  19.0849
    19.3043  19.5820  19.6172  19.8226  20.1428  20.3058  20.3643  20.7424
    23.1028  23.5991

          k = 0.0000 0.2222 0.2222 ( 12528 PWs)   bands (ev):

   -67.3515 -67.3111 -67.3063 -66.5343 -34.0291 -33.9784 -33.9270 -33.2584
   -33.2258 -33.2232 -33.2048 -33.1999 -33.1672 -32.6561 -32.6480 -32.6422
     0.9504  11.4991  11.8222  12.7777  13.2515  15.6150  15.7740  15.9972
    16.3296  16.3635  17.6308  18.2672  18.3693  18.5059  18.5784  19.6835
    19.7678  19.8179  19.9187  20.0932  20.4435  20.4473  20.5154  20.6845
    23.1190  23.9531

          k = 0.0000 0.2222 0.3333 ( 12527 PWs)   bands (ev):

   -67.3453 -67.3161 -67.3072 -66.5345 -34.0441 -33.9750 -33.9059 -33.2721
   -33.2256 -33.2200 -33.2091 -33.2031 -33.1560 -32.6579 -32.6516 -32.6446
     1.1761  10.8717  11.6510  12.5967  13.6634  15.5696  16.0778  16.2380
    16.5922  16.6215  17.4051  17.9794  18.2656  18.5836  18.5885  19.5183
    19.5365  19.7116  19.7449  19.8914  20.4105  20.4109  20.4836  20.6809
    23.0114  23.7342

          k = 0.0000 0.2222 0.4444 ( 12515 PWs)   bands (ev):

   -67.3392 -67.3218 -67.3074 -66.5346 -34.0519 -33.9727 -33.8942 -33.2797
   -33.2244 -33.2179 -33.2129 -33.2051 -33.1501 -32.6572 -32.6540 -32.6479
     1.3354  10.3959  11.6140  12.4902  14.2181  15.2000  16.3417  16.4881
    16.7632  16.8469  17.1756  17.7078  18.1340  18.6115  18.8658  19.1778
    19.3752  19.6215  19.6726  19.8135  20.3952  20.4156  20.4751  20.5141
    23.0487  23.6570

          k = 0.0000 0.3333 0.3333 ( 12518 PWs)   bands (ev):

   -67.3397 -67.3177 -67.3109 -66.5346 -34.0665 -33.9717 -33.8797 -33.2900
   -33.2279 -33.2164 -33.2162 -33.2063 -33.1383 -32.6556 -32.6554 -32.6449
     1.4037  10.8318  10.8968  12.4374  14.0753  15.8682  16.0259  16.4606
    16.7895  16.7989  17.2929  17.6315  18.0633  18.5076  18.7327  19.3586
    19.5304  19.5344  19.7313  19.9247  20.1457  20.5071  20.5134  20.8572
    22.5354  24.3132

          k = 0.0000 0.3333 0.4444 ( 12517 PWs)   bands (ev):

   -67.3339 -67.3217 -67.3126 -66.5347 -34.0782 -33.9695 -33.8653 -33.2997
   -33.2282 -33.2223 -33.2142 -33.2083 -33.1287 -32.6579 -32.6522 -32.6469
     1.5645  10.3851  10.8475  12.3418  14.5567  15.6032  16.2202  16.6895
    16.8593  17.0663  17.1525  17.3658  17.9796  18.4023  18.9742  19.2073
    19.2664  19.5026  19.5849  20.0346  20.0958  20.5254  20.5911  20.7760
    22.3308  24.3165

          k = 0.0000 0.4444 0.4444 ( 12492 PWs)   bands (ev):

   -67.3279 -67.3221 -67.3181 -66.5348 -34.0922 -33.9674 -33.8497 -33.3103
   -33.2304 -33.2288 -33.2117 -33.2105 -33.1171 -32.6605 -32.6484 -32.6468
     1.7268  10.3716  10.3756  12.2521  14.9224  15.9621  15.9821  16.8458
    16.9115  16.9140  17.1165  17.5506  17.9117  18.1331  19.0466  19.0617
    19.3042  19.4723  19.5334  19.7151  20.2625  20.5381  20.7782  20.8773
    21.8695  24.8264

          k = 0.1111 0.1111 0.1111 ( 12563 PWs)   bands (ev):

   -67.3588 -67.3052 -67.3052 -66.5340 -34.0118 -33.9687 -33.9687 -33.2361
   -33.2309 -33.2309 -33.1957 -33.1957 -33.1830 -32.6497 -32.6410 -32.6410
     0.6530  11.8236  12.7770  12.7770  13.1933  15.4346  15.4346  15.7977
    15.7977  15.9797  17.8991  18.1706  18.1706  18.7703  18.7703  20.0054
    20.1164  20.1420  20.1420  20.4002  20.4002  20.4018  20.6830  20.6830
    23.1808  24.0625

          k = 0.1111 0.1111 0.2222 ( 12529 PWs)   bands (ev):

   -67.3543 -67.3095 -67.3052 -66.5342 -34.0261 -33.9658 -33.9479 -33.2436
   -33.2381 -33.2288 -33.1956 -33.1929 -33.1772 -32.6554 -32.6433 -32.6428
     0.8362  11.5661  12.4034  12.5860  13.2014  15.5070  15.6956  15.9212
    16.1317  16.2322  17.7283  18.2744  18.2893  18.6798  18.6801  19.6473
    19.7880  19.9247  19.9925  20.2985  20.4489  20.4711  20.5379  20.7271
    23.2582  23.5521

          k = 0.1111 0.1111 0.3333 ( 12526 PWs)   bands (ev):

   -67.3478 -67.3158 -67.3052 -66.5344 -34.0358 -33.9626 -33.9307 -33.2517
   -33.2457 -33.2241 -33.1939 -33.1926 -33.1730 -32.6594 -32.6473 -32.6459
     1.0613  10.8679  12.3697  12.3988  13.5153  15.4057  16.0630  16.1446
    16.4744  16.5166  17.4468  18.2328  18.3235  18.6233  18.6582  19.2548
    19.5472  19.7153  19.8094  20.1297  20.3504  20.3761  20.5336  20.6670
    23.2541  23.4786

          k = 0.1111 0.1111 0.4444 ( 12521 PWs)   bands (ev):

   -67.3415 -67.3219 -67.3051 -66.5345 -34.0406 -33.9605 -33.9210 -33.2565
   -33.2504 -33.2200 -33.1940 -33.1924 -33.1708 -32.6602 -32.6520 -32.6477
     1.2199  10.3940  12.2891  12.3293  14.0811  15.0139  16.3633  16.3820
    16.6152  16.8200  17.1837  17.9894  18.2134  18.7870  18.8090  19.0181
    19.2797  19.6461  19.6872  20.0047  20.1064  20.3067  20.5540  20.6458
    23.2673  23.5687

          k = 0.1111 0.2222 0.2222 ( 12537 PWs)   bands (ev):

   -67.3502 -67.3111 -67.3075 -66.5343 -34.0491 -33.9569 -33.9262 -33.2590
   -33.2403 -33.2391 -33.1907 -33.1877 -33.1658 -32.6594 -32.6451 -32.6424
     1.0200  11.5141  11.7662  12.3868  13.3759  15.7043  15.8408  16.1108
    16.3311  16.3847  17.6414  18.2105  18.2626  18.5889  18.6015  19.4314
    19.5362  19.8333  19.8426  20.2435  20.4420  20.4842  20.7323  20.8283
    23.2301  23.9472

          k = 0.1111 0.2222 0.3333 ( 12525 PWs)   bands (ev):

   -67.3442 -67.3161 -67.3082 -66.5345 -34.0660 -33.9529 -33.9045 -33.2735
   -33.2499 -33.2380 -33.1878 -33.1854 -33.1551 -32.6603 -32.6480 -32.6443
     1.2464  10.8573  11.6115  12.2608  13.7619  15.6577  16.1553  16.3302
    16.5269  16.6651  17.4260  17.9404  18.1447  18.6004  18.6605  19.2780
    19.3042  19.7068  19.8061  20.0893  20.3801  20.4332  20.7261  20.8360
    23.1212  23.7695

          k = 0.1111 0.2222 0.4444 ( 12540 PWs)   bands (ev):

   -67.3382 -67.3218 -67.3083 -66.5346 -34.0749 -33.9507 -33.8921 -33.2816
   -33.2558 -33.2368 -33.1861 -33.1853 -33.1493 -32.6576 -32.6526 -32.6463
     1.4062  10.3799  11.5685  12.1834  14.2830  15.2975  16.4052  16.5684
    16.6591  16.9774  17.1954  17.6107  18.0536  18.6265  18.8408  19.0775
    19.1791  19.7029  19.8058  19.9538  20.3193  20.3828  20.4879  20.8717
    23.1469  23.7261

          k = 0.1111 0.3333 0.3333 ( 12528 PWs)   bands (ev):

   -67.3388 -67.3177 -67.3117 -66.5346 -34.0891 -33.9485 -33.8793 -33.2923
   -33.2527 -33.2492 -33.1848 -33.1830 -33.1380 -32.6593 -32.6492 -32.6442
     1.4749  10.8122  10.8545  12.1295  14.1547  15.9504  16.0731  16.5537
    16.6810  16.8730  17.3267  17.6478  17.9840  18.5071  18.7403  19.0985
    19.3922  19.5425  19.9237  19.9246  20.2616  20.4109  20.8981  20.9776
    22.5959  24.2108

          k = 0.1111 0.3333 0.4444 ( 12508 PWs)   bands (ev):

   -67.3332 -67.3217 -67.3132 -66.5347 -34.1014 -33.9462 -33.8650 -33.3024
   -33.2585 -33.2515 -33.1833 -33.1825 -33.1286 -32.6574 -32.6497 -32.6455
     1.6366  10.3567  10.8089  12.0485  14.6042  15.6784  16.2440  16.7771
    16.8626  17.0622  17.1774  17.4108  17.9281  18.4035  18.8153  18.9911
    19.3557  19.5849  19.7342  19.9963  20.1408  20.5092  20.7317  21.0726
    22.3518  24.2445

          k = 0.1111 0.4444 0.4444 ( 12499 PWs)   bands (ev):

   -67.3276 -67.3221 -67.3184 -66.5348 -34.1157 -33.9440 -33.8496 -33.3135
   -33.2606 -33.2599 -33.1820 -33.1817 -33.1171 -32.6579 -32.6468 -32.6455
     1.8000  10.3371  10.3386  11.9660  14.9331  15.9994  16.0392  16.8467
    16.9391  17.0013  17.1563  17.6198  17.8808  18.1380  18.6865  19.0342
    19.4387  19.5798  19.6273  19.9197  19.9906  20.7268  20.8651  21.1308
    21.8233  24.5853

          k = 0.2222 0.2222 0.2222 ( 12524 PWs)   bands (ev):

   -67.3465 -67.3110 -67.3110 -66.5344 -34.0778 -33.9242 -33.9242 -33.2614
   -33.2614 -33.2587 -33.1747 -33.1747 -33.1599 -32.6624 -32.6428 -32.6428
     1.2051  11.5055  11.6331  11.6331  13.6117  15.9656  15.9656  16.3809
    16.3959  16.3959  17.6133  18.0858  18.0858  18.6334  18.6334  19.2213
    19.2254  19.7408  19.7408  20.3379  20.4368  20.4368  21.0799  21.0799
    23.3970  23.8152

          k = 0.2222 0.2222 0.3333 ( 12517 PWs)   bands (ev):

   -67.3410 -67.3163 -67.3110 -66.5346 -34.0999 -33.9220 -33.8976 -33.2784
   -33.2761 -33.2616 -33.1697 -33.1642 -33.1503 -32.6614 -32.6443 -32.6432
     1.4335  10.8142  11.4940  11.5402  14.0010  15.8916  16.3472  16.3800
    16.5657  16.7437  17.4588  17.8191  17.9645  18.6055  18.6848  18.9742
    19.2130  19.6808  19.7892  20.2381  20.3906  20.4167  20.9556  21.2852
    23.3371  23.6136

          k = 0.2222 0.2222 0.4444 ( 12513 PWs)   bands (ev):

   -67.3355 -67.3217 -67.3110 -66.5347 -34.1116 -33.9205 -33.8828 -33.2879
   -33.2848 -33.2626 -33.1679 -33.1593 -33.1443 -32.6568 -32.6491 -32.6435
     1.5950  10.3371  11.4091  11.5219  14.4637  15.5468  16.4096  16.6962
    16.7868  17.0771  17.2509  17.4543  17.9241  18.6152  18.7201  18.7984
    19.2515  19.7831  19.8992  20.1207  20.3445  20.3566  20.5387  21.3915
    23.3744  23.4638

          k = 0.2222 0.3333 0.3333 ( 12520 PWs)   bands (ev):

   -67.3363 -67.3177 -67.3141 -66.5347 -34.1267 -33.9096 -33.8784 -33.2983
   -33.2827 -33.2788 -33.1587 -33.1569 -33.1371 -32.6588 -32.6433 -32.6424
     1.6650  10.7516  10.7596  11.4196  14.3573  16.1250  16.1724  16.5858
    16.7954  16.9205  17.4224  17.6824  17.8428  18.5145  18.6473  18.7607
    19.3523  19.6420  19.8902  20.1759  20.3800  20.3971  21.0666  21.4858
    22.7511  23.7076

          k = 0.2222 0.3333 0.4444 ( 12507 PWs)   bands (ev):

   -67.3314 -67.3216 -67.3150 -66.5347 -34.1411 -33.9067 -33.8638 -33.3094
   -33.2914 -33.2832 -33.1564 -33.1521 -33.1281 -32.6542 -32.6452 -32.6421
     1.8293  10.2851  10.7136  11.3578  14.7230  15.8566  16.2685  16.8382
    17.0105  17.0608  17.3085  17.5569  17.8456  18.4188  18.5334  18.7258
    19.4676  19.7470  19.9622  20.0608  20.3208  20.4540  20.7318  21.6892
    22.3540  23.6878

          k = 0.2222 0.4444 0.4444 ( 12518 PWs)   bands (ev):

   -67.3267 -67.3220 -67.3192 -66.5347 -34.1571 -33.9027 -33.8494 -33.3214
   -33.2952 -33.2945 -33.1509 -33.1507 -33.1170 -32.6513 -32.6427 -32.6423
     1.9959  10.2477  10.2518  11.2848  14.9443  16.0835  16.1698  16.6777
    17.2032  17.2398  17.3382  17.7450  17.8430  18.1947  18.3671  18.7273
    19.6938  19.7347  19.8888  19.9596  20.2297  20.6462  20.8147  21.6133
    21.8561  23.8900

          k = 0.3333 0.3333 0.3333 ( 12505 PWs)   bands (ev):

   -67.3326 -67.3176 -67.3176 -66.5347 -34.1573 -33.8774 -33.8774 -33.3060
   -33.3060 -33.3001 -33.1406 -33.1406 -33.1335 -32.6544 -32.6403 -32.6403
     1.9011  10.6408  10.6408  10.7349  14.6291  16.0838  16.4464  16.4464
    17.0956  17.0956  17.5101  17.7469  17.7469  18.4503  18.5254  18.5254
    19.5062  19.8513  19.8513  20.2893  20.3758  20.3758  21.3673  21.3673
    22.9687  22.9687

          k = 0.3333 0.3333 0.4444 ( 12520 PWs)   bands (ev):

   -67.3286 -67.3216 -67.3176 -66.5347 -34.1739 -33.8767 -33.8596 -33.3186
   -33.3147 -33.3077 -33.1379 -33.1315 -33.1258 -32.6488 -32.6410 -32.6390
     2.0693  10.2048  10.5717  10.6653  14.8542  16.0351  16.2874  16.6326
    17.3154  17.3325  17.5107  17.7314  17.8240  18.2896  18.4212  18.5171
    19.6666  19.9041  20.0201  20.2097  20.3904  20.4080  20.7758  21.7173
    22.3419  23.1528

          k = 0.3333 0.4444 0.4444 ( 12510 PWs)   bands (ev):

   -67.3253 -67.3220 -67.3204 -66.5347 -34.1919 -33.8682 -33.8493 -33.3302
   -33.3216 -33.3208 -33.1287 -33.1283 -33.1168 -32.6437 -32.6386 -32.6383
     2.2408  10.1488  10.1584  10.5575  14.9331  16.1685  16.2821  16.4793
    17.5925  17.5995  17.6671  17.8599  17.8663  18.1332  18.3000  18.4923
    19.8637  19.9510  20.0415  20.1412  20.4196  20.4851  20.7226  21.2311
    22.3659  23.1194

          k = 0.4444 0.4444 0.4444 ( 12559 PWs)   bands (ev):

   -67.3238 -67.3220 -67.3220 -66.5347 -34.2110 -33.8491 -33.8491 -33.3359
   -33.3359 -33.3349 -33.1172 -33.1172 -33.1163 -32.6382 -32.6361 -32.6361
     2.4165  10.0866  10.0866  10.1092  14.9149  16.2385  16.3298  16.3298
    17.8947  17.8947  17.9810  17.9810  17.9853  18.0021  18.3663  18.3663
    20.0130  20.0709  20.0709  20.2602  20.3445  20.3445  20.7348  20.7348
    22.6685  22.6685

     the Fermi energy is    18.7318 ev

!    total energy              =   -1345.17095975 Ry
     Harris-Foulkes estimate   =   -1345.17095975 Ry
     estimated scf accuracy    <          5.8E-09 Ry

     total all-electron energy =    -10291.772595 Ry

     The total energy is the sum of the following terms:

     one-electron contribution =    -446.73723693 Ry
     hartree contribution      =     269.20203586 Ry
     xc contribution           =    -117.08711023 Ry
     ewald contribution        =    -711.61403732 Ry
     one-center paw contrib.   =    -338.93470087 Ry
     smearing contrib. (-TS)   =       0.00008974 Ry

     total magnetization       =     7.68 Bohr mag/cell
     absolute magnetization    =     8.03 Bohr mag/cell

     convergence has been achieved in  26 iterations

     Forces acting on atoms (Ry/au):


     negative rho (up, down):  0.000E+00 2.361E-04
     atom    1 type  1   force =     0.00000000    0.00000000    0.00000000
     atom    2 type  1   force =     0.00000000    0.00000000    0.00000000
     atom    3 type  1   force =     0.00000000    0.00000000    0.00000000
     atom    4 type  1   force =     0.00000000    0.00000000    0.00000000
     atom    5 type  2   force =     0.00000000    0.00000000    0.00000000

     Total force =     0.000000     Total SCF correction =     0.000000


     entering subroutine stress ...


     negative rho (up, down):  0.000E+00 2.361E-04
          total   stress  (Ry/bohr**3)                   (kbar)     P=  149.40
   0.00101563   0.00000000   0.00000000        149.40      0.00      0.00
   0.00000000   0.00101563   0.00000000          0.00    149.40      0.00
   0.00000000   0.00000000   0.00101563          0.00      0.00    149.40


     Writing output data file config.save
 
     init_run     :      6.23s CPU      6.43s WALL (       1 calls)
     electrons    :    383.11s CPU    406.57s WALL (       1 calls)
     forces       :      1.46s CPU      1.50s WALL (       1 calls)
     stress       :      5.35s CPU      5.39s WALL (       1 calls)

     Called by init_run:
     wfcinit      :      5.04s CPU      5.15s WALL (       1 calls)
     potinit      :      0.48s CPU      0.52s WALL (       1 calls)

     Called by electrons:
     c_bands      :    313.34s CPU    334.72s WALL (      26 calls)
     sum_band     :     55.81s CPU     57.02s WALL (      26 calls)
     v_of_rho     :      1.44s CPU      1.48s WALL (      27 calls)
     newd         :      2.11s CPU      2.50s WALL (      27 calls)
     mix_rho      :      0.60s CPU      0.62s WALL (      26 calls)

     Called by c_bands:
     init_us_2    :      7.33s CPU      7.71s WALL (    3850 calls)
     cegterg      :    288.74s CPU    308.72s WALL (    1820 calls)

     Called by sum_band:
     sum_band:bec :      0.06s CPU      0.06s WALL (    1820 calls)
     addusdens    :      4.93s CPU      5.52s WALL (      26 calls)

     Called by *egterg:
     h_psi        :    205.76s CPU    210.46s WALL (    6256 calls)
     s_psi        :     11.50s CPU     11.71s WALL (    6256 calls)
     g_psi        :      1.83s CPU      1.96s WALL (    4366 calls)
     cdiaghg      :     19.45s CPU     20.28s WALL (    6186 calls)

     Called by h_psi:
     add_vuspsi   :     11.50s CPU     11.74s WALL (    6256 calls)

     General routines
     calbec       :     16.57s CPU     16.88s WALL (    8426 calls)
     fft          :      0.66s CPU      0.68s WALL (     715 calls)
     fftw         :    189.30s CPU    193.25s WALL (  437088 calls)
     davcio       :      0.09s CPU      3.63s WALL (      70 calls)
 
     Parallel routines
     fft_scatter  :     67.08s CPU     68.58s WALL (  437803 calls)

     PAW routines
     PAW_pot      :     10.21s CPU     10.55s WALL (      27 calls)
     PAW_symme    :      0.04s CPU      0.04s WALL (      53 calls)
 
     PWSCF        :  6m36.91s CPU     7m 4.74s WALL

 
   This run was terminated on:  14:24:57  27Oct2020            

=------------------------------------------------------------------------------=
   JOB DONE.
=------------------------------------------------------------------------------=
