
     Program PWSCF v.5.2.0 starts on 27Oct2020 at 14:26:17 

     This program is part of the open-source Quantum ESPRESSO suite
     for quantum simulation of materials; please cite
         "P. Giannozzi et al., J. Phys.:Condens. Matter 21 395502 (2009);
          URL http://www.quantum-espresso.org", 
     in publications or presentations arising from this work. More details at
     http://www.quantum-espresso.org/quote

     Parallel version (MPI), running on     6 processors
     R & G space division:  proc/nbgrp/npool/nimage =       6
     Reading input from 5.in

     Current dimensions of program PWSCF are:
     Max number of different atomic species (ntypx) = 10
     Max number of k-points (npk) =  40000
     Max angular momentum in pseudopotentials (lmaxx) =  3

     IMPORTANT: XC functional enforced from input :
     Exchange-correlation      = PBE ( 1  4  3  4 0 0)
     Any further DFT definition will be discarded
     Please, verify this is what you really want

               file Fe_PSEUDO: wavefunction(s)  3P 3D renormalized
               file N_PSEUDO: wavefunction(s)  2S renormalized

     Subspace diagonalization in iterative solution of the eigenvalue problem:
     a serial algorithm will be used

 
     Parallelization info
     --------------------
     sticks:   dense  smooth     PW     G-vecs:    dense   smooth      PW
     Min         542     433    120                23348    16727    2460
     Max         546     434    121                23349    16733    2463
     Sum        3265    2601    725               140089   100377   14771
 
     Generating pointlists ...
     new r_m :   0.2063 (alat units)  1.4318 (a.u.) for type    1
     new r_m :   0.2063 (alat units)  1.4318 (a.u.) for type    2


     bravais-lattice index     =            0
     lattice parameter (alat)  =       6.9422  a.u.
     unit-cell volume          =     334.5777 (a.u.)^3
     number of atoms/cell      =            5
     number of atomic types    =            2
     number of electrons       =        69.00
     number of Kohn-Sham states=           42
     kinetic-energy cutoff     =     170.0000  Ry
     charge density cutoff     =     850.0000  Ry
     convergence threshold     =      1.0E-08
     mixing beta               =       0.7000
     number of iterations used =            8  plain     mixing
     Exchange-correlation      = PBE ( 1  4  3  4 0 0)

     celldm(1)=   6.942230  celldm(2)=   0.000000  celldm(3)=   0.000000
     celldm(4)=   0.000000  celldm(5)=   0.000000  celldm(6)=   0.000000

     crystal axes: (cart. coord. in units of alat)
               a(1) = (   1.000000   0.000000   0.000000 )  
               a(2) = (   0.000000   1.000000   0.000000 )  
               a(3) = (   0.000000   0.000000   1.000000 )  

     reciprocal axes: (cart. coord. in units 2 pi/alat)
               b(1) = (  1.000000  0.000000  0.000000 )  
               b(2) = (  0.000000  1.000000  0.000000 )  
               b(3) = (  0.000000  0.000000  1.000000 )  


     PseudoPot. # 1 for Fe read from file:
     pseudo/Fe_PSEUDO
     MD5 check sum: e30d5f36a6f0cb983ee41abee56170da
     Pseudo is Projector augmented-wave + core cor, Zval = 16.0
     Generated using "atomic" code by A. Dal Corso  v.6.3
     Shape of augmentation charge: PSQ
     Using radial grid of 1191 points,  6 beta functions with: 
                l(1) =   0
                l(2) =   0
                l(3) =   1
                l(4) =   1
                l(5) =   2
                l(6) =   2
     Q(r) pseudized with 0 coefficients 


     PseudoPot. # 2 for  N read from file:
     pseudo/N_PSEUDO
     MD5 check sum: 14c48229446f9f2d411169a3abcbc3fa
     Pseudo is Projector augmented-wave + core cor, Zval =  5.0
     Generated using "atomic" code by A. Dal Corso  v.6.3
     Shape of augmentation charge: PSQ
     Using radial grid of 1085 points,  4 beta functions with: 
                l(1) =   0
                l(2) =   0
                l(3) =   1
                l(4) =   1
     Q(r) pseudized with 0 coefficients 


     atomic species   valence    mass     pseudopotential
        Fe            16.00    55.84500     Fe( 1.00)
        N              5.00    14.00650      N( 1.00)

     Starting magnetic structure 
     atomic species   magnetization
        Fe           0.500
        N           -0.010

     48 Sym. Ops., with inversion, found



   Cartesian axes

     site n.     atom                  positions (alat units)
         1           Fe  tau(   1) = (   0.0000000   0.5000000   0.5000000  )
         2           Fe  tau(   2) = (   0.5000000   0.5000000   0.0000000  )
         3           Fe  tau(   3) = (   0.5000000   0.0000000   0.5000000  )
         4           Fe  tau(   4) = (   0.0000000   0.0000000   0.0000000  )
         5           N   tau(   5) = (   0.5000000   0.5000000   0.5000000  )

     number of k points=    70  Marzari-Vanderbilt smearing, width (Ry)=  0.0050
                       cart. coord. in units 2pi/alat
        k(    1) = (   0.0000000   0.0000000   0.0000000), wk =   0.0013717
        k(    2) = (   0.0000000   0.0000000   0.1111111), wk =   0.0082305
        k(    3) = (   0.0000000   0.0000000   0.2222222), wk =   0.0082305
        k(    4) = (   0.0000000   0.0000000   0.3333333), wk =   0.0082305
        k(    5) = (   0.0000000   0.0000000   0.4444444), wk =   0.0082305
        k(    6) = (   0.0000000   0.1111111   0.1111111), wk =   0.0164609
        k(    7) = (   0.0000000   0.1111111   0.2222222), wk =   0.0329218
        k(    8) = (   0.0000000   0.1111111   0.3333333), wk =   0.0329218
        k(    9) = (   0.0000000   0.1111111   0.4444444), wk =   0.0329218
        k(   10) = (   0.0000000   0.2222222   0.2222222), wk =   0.0164609
        k(   11) = (   0.0000000   0.2222222   0.3333333), wk =   0.0329218
        k(   12) = (   0.0000000   0.2222222   0.4444444), wk =   0.0329218
        k(   13) = (   0.0000000   0.3333333   0.3333333), wk =   0.0164609
        k(   14) = (   0.0000000   0.3333333   0.4444444), wk =   0.0329218
        k(   15) = (   0.0000000   0.4444444   0.4444444), wk =   0.0164609
        k(   16) = (   0.1111111   0.1111111   0.1111111), wk =   0.0109739
        k(   17) = (   0.1111111   0.1111111   0.2222222), wk =   0.0329218
        k(   18) = (   0.1111111   0.1111111   0.3333333), wk =   0.0329218
        k(   19) = (   0.1111111   0.1111111   0.4444444), wk =   0.0329218
        k(   20) = (   0.1111111   0.2222222   0.2222222), wk =   0.0329218
        k(   21) = (   0.1111111   0.2222222   0.3333333), wk =   0.0658436
        k(   22) = (   0.1111111   0.2222222   0.4444444), wk =   0.0658436
        k(   23) = (   0.1111111   0.3333333   0.3333333), wk =   0.0329218
        k(   24) = (   0.1111111   0.3333333   0.4444444), wk =   0.0658436
        k(   25) = (   0.1111111   0.4444444   0.4444444), wk =   0.0329218
        k(   26) = (   0.2222222   0.2222222   0.2222222), wk =   0.0109739
        k(   27) = (   0.2222222   0.2222222   0.3333333), wk =   0.0329218
        k(   28) = (   0.2222222   0.2222222   0.4444444), wk =   0.0329218
        k(   29) = (   0.2222222   0.3333333   0.3333333), wk =   0.0329218
        k(   30) = (   0.2222222   0.3333333   0.4444444), wk =   0.0658436
        k(   31) = (   0.2222222   0.4444444   0.4444444), wk =   0.0329218
        k(   32) = (   0.3333333   0.3333333   0.3333333), wk =   0.0109739
        k(   33) = (   0.3333333   0.3333333   0.4444444), wk =   0.0329218
        k(   34) = (   0.3333333   0.4444444   0.4444444), wk =   0.0329218
        k(   35) = (   0.4444444   0.4444444   0.4444444), wk =   0.0109739
        k(   36) = (   0.0000000   0.0000000   0.0000000), wk =   0.0013717
        k(   37) = (   0.0000000   0.0000000   0.1111111), wk =   0.0082305
        k(   38) = (   0.0000000   0.0000000   0.2222222), wk =   0.0082305
        k(   39) = (   0.0000000   0.0000000   0.3333333), wk =   0.0082305
        k(   40) = (   0.0000000   0.0000000   0.4444444), wk =   0.0082305
        k(   41) = (   0.0000000   0.1111111   0.1111111), wk =   0.0164609
        k(   42) = (   0.0000000   0.1111111   0.2222222), wk =   0.0329218
        k(   43) = (   0.0000000   0.1111111   0.3333333), wk =   0.0329218
        k(   44) = (   0.0000000   0.1111111   0.4444444), wk =   0.0329218
        k(   45) = (   0.0000000   0.2222222   0.2222222), wk =   0.0164609
        k(   46) = (   0.0000000   0.2222222   0.3333333), wk =   0.0329218
        k(   47) = (   0.0000000   0.2222222   0.4444444), wk =   0.0329218
        k(   48) = (   0.0000000   0.3333333   0.3333333), wk =   0.0164609
        k(   49) = (   0.0000000   0.3333333   0.4444444), wk =   0.0329218
        k(   50) = (   0.0000000   0.4444444   0.4444444), wk =   0.0164609
        k(   51) = (   0.1111111   0.1111111   0.1111111), wk =   0.0109739
        k(   52) = (   0.1111111   0.1111111   0.2222222), wk =   0.0329218
        k(   53) = (   0.1111111   0.1111111   0.3333333), wk =   0.0329218
        k(   54) = (   0.1111111   0.1111111   0.4444444), wk =   0.0329218
        k(   55) = (   0.1111111   0.2222222   0.2222222), wk =   0.0329218
        k(   56) = (   0.1111111   0.2222222   0.3333333), wk =   0.0658436
        k(   57) = (   0.1111111   0.2222222   0.4444444), wk =   0.0658436
        k(   58) = (   0.1111111   0.3333333   0.3333333), wk =   0.0329218
        k(   59) = (   0.1111111   0.3333333   0.4444444), wk =   0.0658436
        k(   60) = (   0.1111111   0.4444444   0.4444444), wk =   0.0329218
        k(   61) = (   0.2222222   0.2222222   0.2222222), wk =   0.0109739
        k(   62) = (   0.2222222   0.2222222   0.3333333), wk =   0.0329218
        k(   63) = (   0.2222222   0.2222222   0.4444444), wk =   0.0329218
        k(   64) = (   0.2222222   0.3333333   0.3333333), wk =   0.0329218
        k(   65) = (   0.2222222   0.3333333   0.4444444), wk =   0.0658436
        k(   66) = (   0.2222222   0.4444444   0.4444444), wk =   0.0329218
        k(   67) = (   0.3333333   0.3333333   0.3333333), wk =   0.0109739
        k(   68) = (   0.3333333   0.3333333   0.4444444), wk =   0.0329218
        k(   69) = (   0.3333333   0.4444444   0.4444444), wk =   0.0329218
        k(   70) = (   0.4444444   0.4444444   0.4444444), wk =   0.0109739

     Dense  grid:   140089 G-vectors     FFT dimensions: (  72,  72,  72)

     Smooth grid:   100377 G-vectors     FFT dimensions: (  60,  60,  60)

     Largest allocated arrays     est. size (Mb)     dimensions
        Kohn-Sham Wavefunctions         1.36 Mb     (    2127,   42)
        NL pseudopotentials             2.60 Mb     (    2127,   80)
        Each V/rho on FFT grid          1.90 Mb     (   62208,   2)
        Each G-vector array             0.18 Mb     (   23349)
        G-vector shells                 0.01 Mb     (     865)
     Largest temporary arrays     est. size (Mb)     dimensions
        Auxiliary wavefunctions         5.45 Mb     (    2127,  168)
        Each subspace H/S matrix        0.43 Mb     (     168,  168)
        Each <psi_i|beta_j> matrix      0.05 Mb     (      80,   42)
        Arrays for rho mixing           7.59 Mb     (   62208,    8)

     Initial potential from superposition of free atoms

     starting charge   68.99837, renormalised to   69.00000
     Starting wfc are   44 randomized atomic wfcs
     Checking if some PAW data can be deallocated... 

     total cpu time spent up to now is        6.8 secs

     per-process dynamical memory:   147.7 Mb

     Self-consistent Calculation

     iteration #  1     ecut=   170.00 Ry     beta=0.70
     Davidson diagonalization with overlap
     ethr =  1.00E-02,  avg # of iterations =  3.1

     negative rho (up, down):  0.000E+00 3.377E-04
 
     Magnetic moment per site:
     atom:    1    charge:   12.7331    magn:    4.0981    constr:    0.0000
     atom:    2    charge:   12.7331    magn:    4.0981    constr:    0.0000
     atom:    3    charge:   12.7331    magn:    4.0981    constr:    0.0000
     atom:    4    charge:   12.6137    magn:    4.1672    constr:    0.0000
     atom:    5    charge:    4.6361    magn:    0.1187    constr:    0.0000

     total cpu time spent up to now is       24.7 secs

     total energy              =   -1344.14376494 Ry
     Harris-Foulkes estimate   =   -1343.44650528 Ry
     estimated scf accuracy    <       2.86643916 Ry

     total magnetization       =    13.88 Bohr mag/cell
     absolute magnetization    =    14.05 Bohr mag/cell

     iteration #  2     ecut=   170.00 Ry     beta=0.70
     Davidson diagonalization with overlap
     ethr =  4.15E-03,  avg # of iterations =  3.3

     negative rho (up, down):  0.000E+00 2.912E-04
 
     Magnetic moment per site:
     atom:    1    charge:   12.7243    magn:    3.8170    constr:    0.0000
     atom:    2    charge:   12.7243    magn:    3.8170    constr:    0.0000
     atom:    3    charge:   12.7243    magn:    3.8170    constr:    0.0000
     atom:    4    charge:   13.0648    magn:    3.5707    constr:    0.0000
     atom:    5    charge:    4.2262    magn:    0.0573    constr:    0.0000

     total cpu time spent up to now is       42.0 secs

     total energy              =   -1343.30159897 Ry
     Harris-Foulkes estimate   =   -1345.75001088 Ry
     estimated scf accuracy    <       8.51462415 Ry

     total magnetization       =     9.38 Bohr mag/cell
     absolute magnetization    =    10.50 Bohr mag/cell

     iteration #  3     ecut=   170.00 Ry     beta=0.70
     Davidson diagonalization with overlap
     ethr =  4.15E-03,  avg # of iterations =  3.5

     negative rho (up, down):  0.000E+00 2.216E-04
 
     Magnetic moment per site:
     atom:    1    charge:   12.8850    magn:    3.4485    constr:    0.0000
     atom:    2    charge:   12.8850    magn:    3.4485    constr:    0.0000
     atom:    3    charge:   12.8850    magn:    3.4485    constr:    0.0000
     atom:    4    charge:   12.8121    magn:    3.0189    constr:    0.0000
     atom:    5    charge:    4.0303    magn:    0.0243    constr:    0.0000

     total cpu time spent up to now is       59.8 secs

     total energy              =   -1343.62276526 Ry
     Harris-Foulkes estimate   =   -1346.18872785 Ry
     estimated scf accuracy    <      25.51078413 Ry

     total magnetization       =     3.80 Bohr mag/cell
     absolute magnetization    =     4.50 Bohr mag/cell

     iteration #  4     ecut=   170.00 Ry     beta=0.70
     Davidson diagonalization with overlap
     ethr =  4.15E-03,  avg # of iterations =  3.2

     negative rho (up, down):  0.000E+00 4.362E-04
 
     Magnetic moment per site:
     atom:    1    charge:   12.7744    magn:    2.2622    constr:    0.0000
     atom:    2    charge:   12.7744    magn:    2.2622    constr:    0.0000
     atom:    3    charge:   12.7744    magn:    2.2622    constr:    0.0000
     atom:    4    charge:   12.7285    magn:    1.8788    constr:    0.0000
     atom:    5    charge:    4.0533    magn:   -0.0486    constr:    0.0000

     total cpu time spent up to now is       77.8 secs

     total energy              =   -1345.02974838 Ry
     Harris-Foulkes estimate   =   -1345.10718372 Ry
     estimated scf accuracy    <       0.54810806 Ry

     total magnetization       =    10.75 Bohr mag/cell
     absolute magnetization    =    11.16 Bohr mag/cell

     iteration #  5     ecut=   170.00 Ry     beta=0.70
     Davidson diagonalization with overlap
     ethr =  7.94E-04,  avg # of iterations =  3.3

     negative rho (up, down):  0.000E+00 3.626E-04
 
     Magnetic moment per site:
     atom:    1    charge:   12.8333    magn:    2.1626    constr:    0.0000
     atom:    2    charge:   12.8333    magn:    2.1626    constr:    0.0000
     atom:    3    charge:   12.8333    magn:    2.1626    constr:    0.0000
     atom:    4    charge:   12.8041    magn:    2.0421    constr:    0.0000
     atom:    5    charge:    4.1101    magn:   -0.0267    constr:    0.0000

     total cpu time spent up to now is       95.9 secs

     total energy              =   -1345.11514904 Ry
     Harris-Foulkes estimate   =   -1345.20237539 Ry
     estimated scf accuracy    <       0.24092746 Ry

     total magnetization       =     9.59 Bohr mag/cell
     absolute magnetization    =     9.95 Bohr mag/cell

     iteration #  6     ecut=   170.00 Ry     beta=0.70
     Davidson diagonalization with overlap
     ethr =  3.49E-04,  avg # of iterations =  3.0

     negative rho (up, down):  0.000E+00 3.290E-04
 
     Magnetic moment per site:
     atom:    1    charge:   12.8271    magn:    2.1147    constr:    0.0000
     atom:    2    charge:   12.8271    magn:    2.1147    constr:    0.0000
     atom:    3    charge:   12.8271    magn:    2.1147    constr:    0.0000
     atom:    4    charge:   12.7930    magn:    2.3697    constr:    0.0000
     atom:    5    charge:    4.1121    magn:    0.0064    constr:    0.0000

     total cpu time spent up to now is      114.1 secs

     total energy              =   -1345.16190380 Ry
     Harris-Foulkes estimate   =   -1345.15767401 Ry
     estimated scf accuracy    <       0.02601607 Ry

     total magnetization       =     9.38 Bohr mag/cell
     absolute magnetization    =     9.72 Bohr mag/cell

     iteration #  7     ecut=   170.00 Ry     beta=0.70
     Davidson diagonalization with overlap
     ethr =  3.77E-05,  avg # of iterations =  1.7

     negative rho (up, down):  0.000E+00 3.442E-04
 
     Magnetic moment per site:
     atom:    1    charge:   12.8277    magn:    1.9571    constr:    0.0000
     atom:    2    charge:   12.8277    magn:    1.9571    constr:    0.0000
     atom:    3    charge:   12.8277    magn:    1.9571    constr:    0.0000
     atom:    4    charge:   12.7726    magn:    2.8106    constr:    0.0000
     atom:    5    charge:    4.1113    magn:    0.0392    constr:    0.0000

     total cpu time spent up to now is      128.3 secs

     total energy              =   -1345.16177767 Ry
     Harris-Foulkes estimate   =   -1345.16366581 Ry
     estimated scf accuracy    <       0.01804755 Ry

     total magnetization       =     9.38 Bohr mag/cell
     absolute magnetization    =     9.71 Bohr mag/cell

     iteration #  8     ecut=   170.00 Ry     beta=0.70
     Davidson diagonalization with overlap
     ethr =  2.62E-05,  avg # of iterations =  2.2

     negative rho (up, down):  0.000E+00 3.248E-04
 
     Magnetic moment per site:
     atom:    1    charge:   12.8308    magn:    1.8623    constr:    0.0000
     atom:    2    charge:   12.8308    magn:    1.8623    constr:    0.0000
     atom:    3    charge:   12.8308    magn:    1.8623    constr:    0.0000
     atom:    4    charge:   12.7751    magn:    2.7251    constr:    0.0000
     atom:    5    charge:    4.1092    magn:    0.0310    constr:    0.0000

     total cpu time spent up to now is      144.4 secs

     total energy              =   -1345.16681277 Ry
     Harris-Foulkes estimate   =   -1345.16583617 Ry
     estimated scf accuracy    <       0.00209277 Ry

     total magnetization       =     9.00 Bohr mag/cell
     absolute magnetization    =     9.35 Bohr mag/cell

     iteration #  9     ecut=   170.00 Ry     beta=0.70
     Davidson diagonalization with overlap
     ethr =  3.03E-06,  avg # of iterations =  2.1

     negative rho (up, down):  0.000E+00 3.701E-04
 
     Magnetic moment per site:
     atom:    1    charge:   12.8287    magn:    1.9948    constr:    0.0000
     atom:    2    charge:   12.8287    magn:    1.9948    constr:    0.0000
     atom:    3    charge:   12.8287    magn:    1.9948    constr:    0.0000
     atom:    4    charge:   12.7741    magn:    2.7578    constr:    0.0000
     atom:    5    charge:    4.1140    magn:    0.0387    constr:    0.0000

     total cpu time spent up to now is      159.9 secs

     total energy              =   -1345.16426596 Ry
     Harris-Foulkes estimate   =   -1345.16763556 Ry
     estimated scf accuracy    <       0.00202661 Ry

     total magnetization       =     8.59 Bohr mag/cell
     absolute magnetization    =     8.97 Bohr mag/cell

     iteration # 10     ecut=   170.00 Ry     beta=0.70
     Davidson diagonalization with overlap
     ethr =  2.94E-06,  avg # of iterations =  1.9

     negative rho (up, down):  0.000E+00 3.923E-04
 
     Magnetic moment per site:
     atom:    1    charge:   12.8273    magn:    2.0790    constr:    0.0000
     atom:    2    charge:   12.8273    magn:    2.0790    constr:    0.0000
     atom:    3    charge:   12.8273    magn:    2.0790    constr:    0.0000
     atom:    4    charge:   12.7751    magn:    2.7411    constr:    0.0000
     atom:    5    charge:    4.1175    magn:    0.0452    constr:    0.0000

     total cpu time spent up to now is      174.3 secs

     total energy              =   -1345.16404715 Ry
     Harris-Foulkes estimate   =   -1345.16570446 Ry
     estimated scf accuracy    <       0.00220141 Ry

     total magnetization       =     9.10 Bohr mag/cell
     absolute magnetization    =     9.44 Bohr mag/cell

     iteration # 11     ecut=   170.00 Ry     beta=0.70
     Davidson diagonalization with overlap
     ethr =  2.94E-06,  avg # of iterations =  1.7

     negative rho (up, down):  0.000E+00 2.444E-04
 
     Magnetic moment per site:
     atom:    1    charge:   12.8340    magn:    1.7222    constr:    0.0000
     atom:    2    charge:   12.8340    magn:    1.7222    constr:    0.0000
     atom:    3    charge:   12.8340    magn:    1.7222    constr:    0.0000
     atom:    4    charge:   12.7750    magn:    2.6963    constr:    0.0000
     atom:    5    charge:    4.1043    magn:    0.0140    constr:    0.0000

     total cpu time spent up to now is      189.5 secs

     total energy              =   -1345.16054900 Ry
     Harris-Foulkes estimate   =   -1345.16454173 Ry
     estimated scf accuracy    <       0.00284137 Ry

     total magnetization       =     9.33 Bohr mag/cell
     absolute magnetization    =     9.66 Bohr mag/cell

     iteration # 12     ecut=   170.00 Ry     beta=0.70
     Davidson diagonalization with overlap
     ethr =  2.94E-06,  avg # of iterations =  3.1

     negative rho (up, down):  0.000E+00 1.163E-04
 
     Magnetic moment per site:
     atom:    1    charge:   12.8414    magn:    1.3149    constr:    0.0000
     atom:    2    charge:   12.8414    magn:    1.3149    constr:    0.0000
     atom:    3    charge:   12.8414    magn:    1.3149    constr:    0.0000
     atom:    4    charge:   12.7742    magn:    2.6499    constr:    0.0000
     atom:    5    charge:    4.0881    magn:   -0.0229    constr:    0.0000

     total cpu time spent up to now is      209.1 secs

     total energy              =   -1345.16110865 Ry
     Harris-Foulkes estimate   =   -1345.16979972 Ry
     estimated scf accuracy    <       0.00120581 Ry

     total magnetization       =     8.19 Bohr mag/cell
     absolute magnetization    =     8.58 Bohr mag/cell

     iteration # 13     ecut=   170.00 Ry     beta=0.70
     Davidson diagonalization with overlap
     ethr =  1.75E-06,  avg # of iterations =  3.4

     negative rho (up, down):  0.000E+00 1.154E-04
 
     Magnetic moment per site:
     atom:    1    charge:   12.8435    magn:    1.2130    constr:    0.0000
     atom:    2    charge:   12.8435    magn:    1.2130    constr:    0.0000
     atom:    3    charge:   12.8435    magn:    1.2130    constr:    0.0000
     atom:    4    charge:   12.7742    magn:    2.6457    constr:    0.0000
     atom:    5    charge:    4.0838    magn:   -0.0329    constr:    0.0000

     total cpu time spent up to now is      231.0 secs

     total energy              =   -1345.16903429 Ry
     Harris-Foulkes estimate   =   -1345.17043378 Ry
     estimated scf accuracy    <       0.00058943 Ry

     total magnetization       =     7.22 Bohr mag/cell
     absolute magnetization    =     7.60 Bohr mag/cell

     iteration # 14     ecut=   170.00 Ry     beta=0.70
     Davidson diagonalization with overlap
     ethr =  8.54E-07,  avg # of iterations =  2.6

     negative rho (up, down):  0.000E+00 1.164E-04
 
     Magnetic moment per site:
     atom:    1    charge:   12.8424    magn:    1.2871    constr:    0.0000
     atom:    2    charge:   12.8424    magn:    1.2871    constr:    0.0000
     atom:    3    charge:   12.8424    magn:    1.2871    constr:    0.0000
     atom:    4    charge:   12.7742    magn:    2.6537    constr:    0.0000
     atom:    5    charge:    4.0857    magn:   -0.0277    constr:    0.0000

     total cpu time spent up to now is      247.1 secs

     total energy              =   -1345.16996099 Ry
     Harris-Foulkes estimate   =   -1345.16967529 Ry
     estimated scf accuracy    <       0.00128820 Ry

     total magnetization       =     6.98 Bohr mag/cell
     absolute magnetization    =     7.34 Bohr mag/cell

     iteration # 15     ecut=   170.00 Ry     beta=0.70
     Davidson diagonalization with overlap
     ethr =  8.54E-07,  avg # of iterations =  2.0

     negative rho (up, down):  0.000E+00 1.167E-04
 
     Magnetic moment per site:
     atom:    1    charge:   12.8429    magn:    1.2828    constr:    0.0000
     atom:    2    charge:   12.8429    magn:    1.2828    constr:    0.0000
     atom:    3    charge:   12.8429    magn:    1.2828    constr:    0.0000
     atom:    4    charge:   12.7748    magn:    2.6622    constr:    0.0000
     atom:    5    charge:    4.0848    magn:   -0.0322    constr:    0.0000

     total cpu time spent up to now is      262.0 secs

     total energy              =   -1345.17036687 Ry
     Harris-Foulkes estimate   =   -1345.17030980 Ry
     estimated scf accuracy    <       0.00076925 Ry

     total magnetization       =     7.16 Bohr mag/cell
     absolute magnetization    =     7.53 Bohr mag/cell

     iteration # 16     ecut=   170.00 Ry     beta=0.70
     Davidson diagonalization with overlap
     ethr =  8.54E-07,  avg # of iterations =  1.0

     negative rho (up, down):  0.000E+00 1.548E-04
 
     Magnetic moment per site:
     atom:    1    charge:   12.8389    magn:    1.4906    constr:    0.0000
     atom:    2    charge:   12.8389    magn:    1.4906    constr:    0.0000
     atom:    3    charge:   12.8389    magn:    1.4906    constr:    0.0000
     atom:    4    charge:   12.7743    magn:    2.6896    constr:    0.0000
     atom:    5    charge:    4.0904    magn:   -0.0200    constr:    0.0000

     total cpu time spent up to now is      275.2 secs

     total energy              =   -1345.16806341 Ry
     Harris-Foulkes estimate   =   -1345.17038115 Ry
     estimated scf accuracy    <       0.00080048 Ry

     total magnetization       =     7.16 Bohr mag/cell
     absolute magnetization    =     7.53 Bohr mag/cell

     iteration # 17     ecut=   170.00 Ry     beta=0.70
     Davidson diagonalization with overlap
     ethr =  8.54E-07,  avg # of iterations =  3.1

     negative rho (up, down):  0.000E+00 1.560E-04
 
     Magnetic moment per site:
     atom:    1    charge:   12.8385    magn:    1.5007    constr:    0.0000
     atom:    2    charge:   12.8385    magn:    1.5007    constr:    0.0000
     atom:    3    charge:   12.8385    magn:    1.5007    constr:    0.0000
     atom:    4    charge:   12.7743    magn:    2.6860    constr:    0.0000
     atom:    5    charge:    4.0912    magn:   -0.0179    constr:    0.0000

     total cpu time spent up to now is      294.8 secs

     total energy              =   -1345.17086671 Ry
     Harris-Foulkes estimate   =   -1345.17088518 Ry
     estimated scf accuracy    <       0.00092526 Ry

     total magnetization       =     7.72 Bohr mag/cell
     absolute magnetization    =     8.06 Bohr mag/cell

     iteration # 18     ecut=   170.00 Ry     beta=0.70
     Davidson diagonalization with overlap
     ethr =  8.54E-07,  avg # of iterations =  1.0

     negative rho (up, down):  0.000E+00 1.612E-04
 
     Magnetic moment per site:
     atom:    1    charge:   12.8364    magn:    1.5471    constr:    0.0000
     atom:    2    charge:   12.8364    magn:    1.5471    constr:    0.0000
     atom:    3    charge:   12.8364    magn:    1.5471    constr:    0.0000
     atom:    4    charge:   12.7739    magn:    2.6668    constr:    0.0000
     atom:    5    charge:    4.0958    magn:   -0.0044    constr:    0.0000

     total cpu time spent up to now is      308.5 secs

     total energy              =   -1345.17065657 Ry
     Harris-Foulkes estimate   =   -1345.17087474 Ry
     estimated scf accuracy    <       0.00072551 Ry

     total magnetization       =     7.74 Bohr mag/cell
     absolute magnetization    =     8.09 Bohr mag/cell

     iteration # 19     ecut=   170.00 Ry     beta=0.70
     Davidson diagonalization with overlap
     ethr =  8.54E-07,  avg # of iterations =  2.0

     negative rho (up, down):  0.000E+00 1.553E-04
 
     Magnetic moment per site:
     atom:    1    charge:   12.8367    magn:    1.5313    constr:    0.0000
     atom:    2    charge:   12.8367    magn:    1.5313    constr:    0.0000
     atom:    3    charge:   12.8367    magn:    1.5313    constr:    0.0000
     atom:    4    charge:   12.7738    magn:    2.6665    constr:    0.0000
     atom:    5    charge:    4.0950    magn:   -0.0057    constr:    0.0000

     total cpu time spent up to now is      323.8 secs

     total energy              =   -1345.17086956 Ry
     Harris-Foulkes estimate   =   -1345.17084258 Ry
     estimated scf accuracy    <       0.00011807 Ry

     total magnetization       =     7.84 Bohr mag/cell
     absolute magnetization    =     8.18 Bohr mag/cell

     iteration # 20     ecut=   170.00 Ry     beta=0.70
     Davidson diagonalization with overlap
     ethr =  1.71E-07,  avg # of iterations =  1.2

     negative rho (up, down):  0.000E+00 1.386E-04
 
     Magnetic moment per site:
     atom:    1    charge:   12.8370    magn:    1.4852    constr:    0.0000
     atom:    2    charge:   12.8370    magn:    1.4852    constr:    0.0000
     atom:    3    charge:   12.8370    magn:    1.4852    constr:    0.0000
     atom:    4    charge:   12.7735    magn:    2.6509    constr:    0.0000
     atom:    5    charge:    4.0950    magn:   -0.0030    constr:    0.0000

     total cpu time spent up to now is      337.4 secs

     total energy              =   -1345.17078206 Ry
     Harris-Foulkes estimate   =   -1345.17088650 Ry
     estimated scf accuracy    <       0.00011777 Ry

     total magnetization       =     7.80 Bohr mag/cell
     absolute magnetization    =     8.15 Bohr mag/cell

     iteration # 21     ecut=   170.00 Ry     beta=0.70
     Davidson diagonalization with overlap
     ethr =  1.71E-07,  avg # of iterations =  2.8

     negative rho (up, down):  0.000E+00 1.384E-04
 
     Magnetic moment per site:
     atom:    1    charge:   12.8371    magn:    1.4844    constr:    0.0000
     atom:    2    charge:   12.8371    magn:    1.4844    constr:    0.0000
     atom:    3    charge:   12.8371    magn:    1.4844    constr:    0.0000
     atom:    4    charge:   12.7736    magn:    2.6532    constr:    0.0000
     atom:    5    charge:    4.0948    magn:   -0.0042    constr:    0.0000

     total cpu time spent up to now is      354.9 secs

     total energy              =   -1345.17094788 Ry
     Harris-Foulkes estimate   =   -1345.17094698 Ry
     estimated scf accuracy    <       0.00000669 Ry

     total magnetization       =     7.68 Bohr mag/cell
     absolute magnetization    =     8.03 Bohr mag/cell

     iteration # 22     ecut=   170.00 Ry     beta=0.70
     Davidson diagonalization with overlap
     ethr =  9.70E-09,  avg # of iterations =  2.1

     negative rho (up, down):  0.000E+00 1.392E-04
 
     Magnetic moment per site:
     atom:    1    charge:   12.8373    magn:    1.4854    constr:    0.0000
     atom:    2    charge:   12.8373    magn:    1.4854    constr:    0.0000
     atom:    3    charge:   12.8373    magn:    1.4854    constr:    0.0000
     atom:    4    charge:   12.7738    magn:    2.6537    constr:    0.0000
     atom:    5    charge:    4.0948    magn:   -0.0040    constr:    0.0000

     total cpu time spent up to now is      369.5 secs

     total energy              =   -1345.17094854 Ry
     Harris-Foulkes estimate   =   -1345.17094898 Ry
     estimated scf accuracy    <       0.00000362 Ry

     total magnetization       =     7.67 Bohr mag/cell
     absolute magnetization    =     8.03 Bohr mag/cell

     iteration # 23     ecut=   170.00 Ry     beta=0.70
     Davidson diagonalization with overlap
     ethr =  5.24E-09,  avg # of iterations =  2.2

     negative rho (up, down):  0.000E+00 1.393E-04
 
     Magnetic moment per site:
     atom:    1    charge:   12.8373    magn:    1.4858    constr:    0.0000
     atom:    2    charge:   12.8373    magn:    1.4858    constr:    0.0000
     atom:    3    charge:   12.8373    magn:    1.4858    constr:    0.0000
     atom:    4    charge:   12.7738    magn:    2.6541    constr:    0.0000
     atom:    5    charge:    4.0947    magn:   -0.0040    constr:    0.0000

     total cpu time spent up to now is      384.8 secs

     total energy              =   -1345.17094939 Ry
     Harris-Foulkes estimate   =   -1345.17094935 Ry
     estimated scf accuracy    <       0.00000014 Ry

     total magnetization       =     7.68 Bohr mag/cell
     absolute magnetization    =     8.03 Bohr mag/cell

     iteration # 24     ecut=   170.00 Ry     beta=0.70
     Davidson diagonalization with overlap
     ethr =  1.99E-10,  avg # of iterations =  3.1

     negative rho (up, down):  0.000E+00 1.395E-04
 
     Magnetic moment per site:
     atom:    1    charge:   12.8373    magn:    1.4867    constr:    0.0000
     atom:    2    charge:   12.8373    magn:    1.4867    constr:    0.0000
     atom:    3    charge:   12.8373    magn:    1.4867    constr:    0.0000
     atom:    4    charge:   12.7737    magn:    2.6539    constr:    0.0000
     atom:    5    charge:    4.0948    magn:   -0.0038    constr:    0.0000

     total cpu time spent up to now is      403.9 secs

     total energy              =   -1345.17094948 Ry
     Harris-Foulkes estimate   =   -1345.17094949 Ry
     estimated scf accuracy    <       0.00000005 Ry

     total magnetization       =     7.68 Bohr mag/cell
     absolute magnetization    =     8.03 Bohr mag/cell

     iteration # 25     ecut=   170.00 Ry     beta=0.70
     Davidson diagonalization with overlap
     ethr =  6.82E-11,  avg # of iterations =  2.4

     negative rho (up, down):  0.000E+00 1.395E-04
 
     Magnetic moment per site:
     atom:    1    charge:   12.8373    magn:    1.4868    constr:    0.0000
     atom:    2    charge:   12.8373    magn:    1.4868    constr:    0.0000
     atom:    3    charge:   12.8373    magn:    1.4868    constr:    0.0000
     atom:    4    charge:   12.7738    magn:    2.6539    constr:    0.0000
     atom:    5    charge:    4.0948    magn:   -0.0037    constr:    0.0000

     total cpu time spent up to now is      420.7 secs

     total energy              =   -1345.17094954 Ry
     Harris-Foulkes estimate   =   -1345.17094955 Ry
     estimated scf accuracy    <       0.00000008 Ry

     total magnetization       =     7.68 Bohr mag/cell
     absolute magnetization    =     8.03 Bohr mag/cell

     iteration # 26     ecut=   170.00 Ry     beta=0.70
     Davidson diagonalization with overlap
     ethr =  6.82E-11,  avg # of iterations =  2.1

     negative rho (up, down):  0.000E+00 1.396E-04
 
     Magnetic moment per site:
     atom:    1    charge:   12.8373    magn:    1.4872    constr:    0.0000
     atom:    2    charge:   12.8373    magn:    1.4872    constr:    0.0000
     atom:    3    charge:   12.8373    magn:    1.4872    constr:    0.0000
     atom:    4    charge:   12.7738    magn:    2.6539    constr:    0.0000
     atom:    5    charge:    4.0948    magn:   -0.0037    constr:    0.0000

     total cpu time spent up to now is      435.5 secs

     total energy              =   -1345.17094955 Ry
     Harris-Foulkes estimate   =   -1345.17094955 Ry
     estimated scf accuracy    <       0.00000001 Ry

     total magnetization       =     7.68 Bohr mag/cell
     absolute magnetization    =     8.03 Bohr mag/cell

     iteration # 27     ecut=   170.00 Ry     beta=0.70
     Davidson diagonalization with overlap
     ethr =  2.15E-11,  avg # of iterations =  2.4

     negative rho (up, down):  0.000E+00 1.396E-04
 
     Magnetic moment per site:
     atom:    1    charge:   12.8373    magn:    1.4873    constr:    0.0000
     atom:    2    charge:   12.8373    magn:    1.4873    constr:    0.0000
     atom:    3    charge:   12.8373    magn:    1.4873    constr:    0.0000
     atom:    4    charge:   12.7738    magn:    2.6538    constr:    0.0000
     atom:    5    charge:    4.0948    magn:   -0.0037    constr:    0.0000

     total cpu time spent up to now is      451.6 secs

     End of self-consistent calculation

 ------ SPIN UP ------------


          k = 0.0000 0.0000 0.0000 ( 12533 PWs)   bands (ev):

   -69.9378 -69.2598 -69.2055 -69.2055 -35.9987 -35.9987 -35.9987 -35.6160
   -35.6160 -35.6160 -35.1589 -35.1589 -35.1589 -35.1522 -35.1522 -35.1522
     0.3455  11.4281  13.3303  13.3303  13.3303  13.8395  13.8395  14.1050
    14.1050  14.1050  16.0922  16.0922  16.0922  17.1985  17.1985  17.8462
    17.8462  18.3984  18.3984  18.3984  18.4659  18.4659  18.4659  18.4676
    21.8876  23.7552

          k = 0.0000 0.0000 0.1111 ( 12537 PWs)   bands (ev):

   -69.9377 -69.2584 -69.2069 -69.2055 -35.9977 -35.9977 -35.9974 -35.6148
   -35.6148 -35.6138 -35.1599 -35.1599 -35.1591 -35.1571 -35.1534 -35.1534
     0.4152  11.4854  12.9271  13.1103  13.1103  13.9189  13.9305  14.1573
    14.3441  14.3441  16.0276  16.1462  16.1462  17.2216  17.2573  17.8147
    17.8702  18.3139  18.3139  18.3983  18.3983  18.3985  18.4065  18.4648
    21.9636  23.2362

          k = 0.0000 0.0000 0.2222 ( 12549 PWs)   bands (ev):

   -69.9374 -69.2545 -69.2111 -69.2054 -35.9952 -35.9952 -35.9939 -35.6118
   -35.6118 -35.6078 -35.1697 -35.1627 -35.1627 -35.1599 -35.1563 -35.1563
     0.6002  11.3377  12.5043  12.7672  12.7672  14.0811  14.1353  14.3090
    14.7509  14.7509  15.8448  16.2722  16.2722  17.1943  17.2859  17.7245
    17.7688  17.9543  17.9543  18.2394  18.3989  18.4016  18.4016  18.4620
    22.1775  22.5169

          k = 0.0000 0.0000 0.3333 ( 12553 PWs)   bands (ev):

   -69.9371 -69.2488 -69.2171 -69.2054 -35.9924 -35.9924 -35.9900 -35.6083
   -35.6083 -35.6003 -35.1846 -35.1664 -35.1664 -35.1607 -35.1591 -35.1591
     0.8280  10.6696  12.4972  12.4972  12.8460  14.1976  14.4173  14.5423
    15.1427  15.1427  15.5761  16.3646  16.3646  16.9837  17.3214  17.3618
    17.5816  17.5816  17.6126  18.0173  18.3993  18.4146  18.4146  18.4592
    22.0442  22.5716

          k = 0.0000 0.0000 0.4444 ( 12544 PWs)   bands (ev):

   -69.9369 -69.2435 -69.2226 -69.2054 -35.9905 -35.9905 -35.9875 -35.6059
   -35.6059 -35.5949 -35.1947 -35.1691 -35.1691 -35.1613 -35.1608 -35.1608
     0.9888  10.1828  12.3530  12.3530  13.4007  14.1248  14.6316  14.8079
    15.2873  15.4349  15.4349  16.3333  16.3333  16.7319  16.9439  17.3464
    17.3745  17.3745  17.6400  17.8046  18.3996  18.4299  18.4299  18.4575
    21.9109  22.7894

          k = 0.0000 0.1111 0.1111 ( 12557 PWs)   bands (ev):

   -69.9376 -69.2571 -69.2076 -69.2062 -35.9981 -35.9968 -35.9951 -35.6259
   -35.6136 -35.5994 -35.1702 -35.1608 -35.1604 -35.1572 -35.1547 -35.1484
     0.4849  11.5393  12.6985  12.8568  12.9537  13.9961  14.0039  14.2124
    14.4871  14.5135  16.0040  16.1628  16.1926  17.2489  17.2729  17.7260
    17.7834  18.2261  18.2640  18.3182  18.3245  18.4102  18.4791  18.5427
    22.0242  23.4380

          k = 0.0000 0.1111 0.2222 ( 12548 PWs)   bands (ev):

   -69.9374 -69.2532 -69.2114 -69.2065 -35.9965 -35.9944 -35.9918 -35.6334
   -35.6104 -35.5835 -35.1855 -35.1654 -35.1636 -35.1583 -35.1577 -35.1440
     0.6702  11.3589  12.2604  12.6630  12.6765  14.1572  14.2067  14.3624
    14.8144  14.8589  15.8417  16.2814  16.2889  17.1598  17.3236  17.4381
    17.5844  17.9115  18.1400  18.1984  18.2421  18.3839  18.5584  18.6825
    22.2028  22.6701

          k = 0.0000 0.1111 0.3333 ( 12541 PWs)   bands (ev):

   -69.9371 -69.2477 -69.2172 -69.2065 -35.9938 -35.9916 -35.9892 -35.6372
   -35.6067 -35.5695 -35.2008 -35.1704 -35.1672 -35.1607 -35.1603 -35.1418
     0.8986  10.6614  12.1384  12.4160  12.9459  14.2827  14.4859  14.5914
    15.1751  15.2146  15.5804  16.2917  16.3934  16.9294  17.0978  17.2659
    17.4904  17.5577  17.8566  18.0736  18.1798  18.3775  18.6300  18.6760
    22.2617  22.4505

          k = 0.0000 0.1111 0.4444 ( 12514 PWs)   bands (ev):

   -69.9369 -69.2424 -69.2226 -69.2065 -35.9913 -35.9898 -35.9882 -35.6385
   -35.6043 -35.5611 -35.2105 -35.1736 -35.1698 -35.1625 -35.1617 -35.1409
     1.0598  10.1713  12.0376  12.2806  13.4693  14.2194  14.7010  14.8577
    15.2907  15.4589  15.4816  16.1376  16.3911  16.6629  16.8641  17.2557
    17.3557  17.4658  17.7081  17.8996  18.1436  18.3754  18.6540  18.6760
    22.1431  22.6124

          k = 0.0000 0.2222 0.2222 ( 12528 PWs)   bands (ev):

   -69.9371 -69.2496 -69.2131 -69.2086 -35.9968 -35.9921 -35.9897 -35.6520
   -35.6069 -35.5580 -35.2069 -35.1680 -35.1659 -35.1613 -35.1600 -35.1304
     0.8565  11.2947  11.5675  12.4408  12.7896  14.3577  14.3836  14.5051
    15.0143  15.1103  15.7598  16.2750  16.3629  17.0227  17.0279  17.3105
    17.4587  17.7426  18.0346  18.0887  18.2580  18.3352  18.7087  18.9945
    22.1161  22.9986

          k = 0.0000 0.2222 0.3333 ( 12527 PWs)   bands (ev):

   -69.9369 -69.2443 -69.2177 -69.2095 -35.9954 -35.9896 -35.9890 -35.6644
   -35.6028 -35.5373 -35.2249 -35.1708 -35.1691 -35.1649 -35.1623 -35.1214
     1.0864  10.6284  11.3677  12.2332  13.1803  14.5164  14.6612  14.7163
    15.2788  15.3906  15.5581  16.0663  16.4960  16.7579  16.8087  17.1021
    17.4757  17.6359  17.8031  17.9581  18.1970  18.3523  18.8360  19.0294
    21.9457  22.8236

          k = 0.0000 0.2222 0.4444 ( 12515 PWs)   bands (ev):

   -69.9367 -69.2391 -69.2227 -69.2097 -35.9931 -35.9901 -35.9879 -35.6705
   -35.6000 -35.5255 -35.2353 -35.1727 -35.1717 -35.1668 -35.1639 -35.1170
     1.2491  10.1368  11.3031  12.1146  13.6799  14.4693  14.8909  14.9680
    15.2994  15.4959  15.5997  15.8226  16.5517  16.5535  16.6115  17.0968
    17.2981  17.5289  17.8751  17.8800  18.1778  18.2117  18.9127  18.9632
    21.9128  22.7458

          k = 0.0000 0.3333 0.3333 ( 12518 PWs)   bands (ev):

   -69.9367 -69.2394 -69.2193 -69.2129 -35.9958 -35.9903 -35.9873 -35.6839
   -35.5982 -35.5120 -35.2445 -35.1716 -35.1708 -35.1694 -35.1648 -35.1066
     1.3188  10.5582  10.5959  12.0537  13.5742  14.8385  14.8435  14.8883
    15.4140  15.4603  15.5952  15.7406  16.5553  16.6483  16.6580  16.8988
    17.3283  17.6094  17.7585  17.9056  18.0439  18.5482  19.0045  19.1747
    21.2662  23.3557

          k = 0.0000 0.3333 0.4444 ( 12517 PWs)   bands (ev):

   -69.9366 -69.2343 -69.2229 -69.2145 -35.9948 -35.9925 -35.9858 -35.6939
   -35.5951 -35.4979 -35.2553 -35.1739 -35.1718 -35.1707 -35.1666 -35.0989
     1.4838  10.0900  10.5351  11.9484  14.0224  14.7993  15.0851  15.1284
    15.2954  15.5100  15.5584  15.7466  16.4019  16.4741  16.7779  16.8318
    17.2034  17.4000  17.6211  17.9743  18.1741  18.5812  19.1031  19.1301
    20.9080  23.4489

          k = 0.0000 0.4444 0.4444 ( 12492 PWs)   bands (ev):

   -69.9365 -69.2287 -69.2233 -69.2196 -35.9954 -35.9946 -35.9844 -35.7062
   -35.5918 -35.4827 -35.2663 -35.1753 -35.1751 -35.1694 -35.1685 -35.0893
     1.6507  10.0557  10.0562  11.8497  14.3682  15.0249  15.1860  15.2541
    15.2591  15.4092  15.5746  15.8593  16.3141  16.3958  16.5770  16.9871
    17.1139  17.2350  17.4098  17.8580  18.3843  18.9445  19.1753  19.2132
    20.1306  23.9983

          k = 0.1111 0.1111 0.1111 ( 12563 PWs)   bands (ev):

   -69.9375 -69.2558 -69.2076 -69.2076 -35.9974 -35.9974 -35.9928 -35.6381
   -35.5983 -35.5983 -35.1732 -35.1695 -35.1695 -35.1504 -35.1486 -35.1486
     0.5548  11.5894  12.5636  12.5636  12.8355  14.0719  14.0719  14.3897
    14.3897  14.7342  15.9886  16.2024  16.2024  17.2670  17.2670  17.6644
    17.6644  17.9913  18.1235  18.3443  18.3443  18.4200  18.6412  18.6412
    22.0744  23.5626

          k = 0.1111 0.1111 0.2222 ( 12529 PWs)   bands (ev):

   -69.9373 -69.2520 -69.2116 -69.2076 -35.9964 -35.9956 -35.9896 -35.6502
   -35.5954 -35.5779 -35.1898 -35.1799 -35.1712 -35.1507 -35.1457 -35.1434
     0.7404  11.3710  12.1431  12.2978  12.7588  14.2326  14.2776  14.4626
    14.7622  15.0134  15.8443  16.2848  16.2954  17.1764  17.2944  17.3841
    17.4080  17.7636  17.9272  18.2177  18.3454  18.3565  18.8022  18.8330
    22.2209  22.8348

          k = 0.1111 0.1111 0.3333 ( 12526 PWs)   bands (ev):

   -69.9370 -69.2465 -69.2173 -69.2076 -35.9936 -35.9935 -35.9877 -35.6577
   -35.5920 -35.5605 -35.2060 -35.1885 -35.1723 -35.1525 -35.1464 -35.1393
     0.9693  10.6461  12.0640  12.0768  13.0383  14.3639  14.5548  14.6650
    15.1711  15.2805  15.5908  16.2781  16.3444  16.9169  17.0710  17.1118
    17.4311  17.6065  17.7044  18.0899  18.2504  18.3342  18.6813  18.9926
    22.4190  22.4435

          k = 0.1111 0.1111 0.4444 ( 12521 PWs)   bands (ev):

   -69.9368 -69.2413 -69.2227 -69.2075 -35.9922 -35.9903 -35.9879 -35.6611
   -35.5898 -35.5503 -35.2161 -35.1935 -35.1729 -35.1536 -35.1479 -35.1374
     1.1312  10.1542  11.9340  12.0077  13.5365  14.3074  14.7710  14.9232
    15.3010  15.4550  15.5306  16.0758  16.2782  16.6260  16.9676  17.0972
    17.3343  17.4993  17.7094  17.9303  18.1846  18.3239  18.5240  19.0841
    22.3369  22.5624

          k = 0.1111 0.2222 0.2222 ( 12537 PWs)   bands (ev):

   -69.9371 -69.2485 -69.2131 -69.2097 -35.9968 -35.9947 -35.9873 -35.6704
   -35.5862 -35.5571 -35.2079 -35.1849 -35.1814 -35.1463 -35.1454 -35.1307
     0.9272  11.2970  11.4890  12.0698  12.8956  14.4281  14.4566  14.6312
    14.9391  15.2089  15.7703  16.2698  16.3403  17.0319  17.0920  17.2143
    17.3959  17.5443  17.7224  18.2482  18.2499  18.3219  19.0779  19.1107
    22.1896  23.1065

          k = 0.1111 0.2222 0.3333 ( 12525 PWs)   bands (ev):

   -69.9369 -69.2433 -69.2177 -69.2104 -35.9958 -35.9932 -35.9866 -35.6846
   -35.5817 -35.5357 -35.2252 -35.1936 -35.1836 -35.1472 -35.1440 -35.1215
     1.1580  10.5980  11.3112  11.9147  13.2657  14.5776  14.7281  14.8336
    15.2639  15.3766  15.5837  16.1024  16.3721  16.7653  16.9127  17.0315
    17.4421  17.4783  17.6147  18.1522  18.1978  18.2546  18.9968  19.3339
    22.0570  22.8862

          k = 0.1111 0.2222 0.4444 ( 12540 PWs)   bands (ev):

   -69.9367 -69.2383 -69.2227 -69.2105 -35.9941 -35.9919 -35.9875 -35.6918
   -35.5792 -35.5233 -35.2353 -35.1992 -35.1840 -35.1480 -35.1441 -35.1169
     1.3214  10.1073  11.2411  11.8216  13.7358  14.5293  14.9596  15.0711
    15.3034  15.4786  15.6038  15.8650  16.2990  16.5435  16.8771  16.9676
    17.3026  17.4482  17.7965  18.0504  18.1010  18.2334  18.7430  19.4754
    22.0153  22.8358

          k = 0.1111 0.3333 0.3333 ( 12528 PWs)   bands (ev):

   -69.9367 -69.2386 -69.2193 -69.2137 -35.9965 -35.9932 -35.9867 -35.7048
   -35.5763 -35.5115 -35.2434 -35.1950 -35.1922 -35.1454 -35.1440 -35.1067
     1.3916  10.5242  10.5392  11.7568  13.6361  14.8226  14.9039  15.0687
    15.3298  15.4721  15.5696  15.9050  16.3668  16.6362  16.7527  16.9585
    17.3279  17.3355  17.7955  18.0115  18.1089  18.3397  19.2237  19.4681
    21.3618  23.2565

          k = 0.1111 0.3333 0.4444 ( 12508 PWs)   bands (ev):

   -69.9366 -69.2337 -69.2229 -69.2150 -35.9959 -35.9941 -35.9870 -35.7154
   -35.5733 -35.4975 -35.2537 -35.1994 -35.1935 -35.1452 -35.1439 -35.0989
     1.5577  10.0487  10.4832  11.6623  14.0410  14.7950  15.0911  15.2864
    15.2944  15.5094  15.5624  15.9175  16.2898  16.4462  16.7282  16.9210
    17.2030  17.3109  17.8568  17.9767  18.0305  18.4891  19.0171  19.6595
    20.9540  23.3826

          k = 0.1111 0.4444 0.4444 ( 12499 PWs)   bands (ev):

   -69.9365 -69.2284 -69.2233 -69.2199 -35.9966 -35.9959 -35.9868 -35.7280
   -35.5701 -35.4827 -35.2639 -35.1992 -35.1988 -35.1442 -35.1439 -35.0893
     1.7259  10.0074  10.0093  11.5675  14.3232  14.9817  15.0454  15.2046
    15.5461  15.5519  15.6300  16.0537  16.2560  16.3619  16.5046  16.9239
    17.1742  17.2216  17.6748  17.9346  18.0857  18.8780  19.1705  19.7003
    20.1198  23.7365

          k = 0.2222 0.2222 0.2222 ( 12524 PWs)   bands (ev):

   -69.9369 -69.2453 -69.2131 -69.2131 -35.9967 -35.9967 -35.9856 -35.6961
   -35.5548 -35.5548 -35.2154 -35.1981 -35.1981 -35.1332 -35.1332 -35.1291
     1.1156  11.2708  11.3111  11.3111  13.1133  14.6224  14.6224  14.9420
    14.9420  15.3042  15.7317  16.2795  16.2795  16.9693  16.9693  17.2825
    17.2825  17.2923  17.4273  18.2286  18.2286  18.3819  19.4148  19.4148
    22.2836  23.0622

          k = 0.2222 0.2222 0.3333 ( 12517 PWs)   bands (ev):

   -69.9367 -69.2406 -69.2179 -69.2130 -35.9967 -35.9966 -35.9862 -35.7152
   -35.5521 -35.5287 -35.2295 -35.2110 -35.2008 -35.1332 -35.1254 -35.1196
     1.3490  10.5168  11.1353  11.2354  13.4788  14.7338  14.8920  15.1007
    15.2918  15.2957  15.6689  16.1480  16.2341  16.7243  16.7862  17.1818
    17.1847  17.3774  17.5207  18.1617  18.2199  18.3165  19.2419  19.7642
    22.2488  22.6937

          k = 0.2222 0.2222 0.4444 ( 12513 PWs)   bands (ev):

   -69.9366 -69.2358 -69.2228 -69.2130 -35.9966 -35.9949 -35.9883 -35.7252
   -35.5503 -35.5141 -35.2384 -35.2181 -35.2010 -35.1337 -35.1220 -35.1142
     1.5148  10.0324  11.0316  11.1935  13.8847  14.6647  15.1474  15.1481
    15.4031  15.4925  15.6117  15.9868  16.1837  16.4975  16.7714  17.0065
    17.1469  17.5601  17.7233  18.0967  18.1967  18.2423  18.8109  20.0145
    22.2603  22.3756

          k = 0.2222 0.3333 0.3333 ( 12520 PWs)   bands (ev):

   -69.9366 -69.2364 -69.2193 -69.2159 -35.9984 -35.9975 -35.9880 -35.7391
   -35.5395 -35.5103 -35.2413 -35.2163 -35.2129 -35.1243 -35.1229 -35.1068
     1.5864  10.4047  10.4371  11.0621  13.7833  14.8928  14.9973  15.1537
    15.4038  15.4571  15.8015  16.1026  16.2133  16.6139  16.6342  16.9618
    17.3040  17.3491  17.6462  18.1530  18.2324  18.2822  19.4027  19.9185
    21.6314  22.6893

          k = 0.2222 0.3333 0.4444 ( 12507 PWs)   bands (ev):

   -69.9365 -69.2320 -69.2229 -69.2167 -35.9987 -35.9976 -35.9905 -35.7518
   -35.5362 -35.4961 -35.2497 -35.2222 -35.2142 -35.1239 -35.1189 -35.0990
     1.7556   9.9478  10.3577  10.9827  14.0723  14.8049  15.0273  15.2237
    15.4900  15.7148  15.8751  16.1619  16.1878  16.4233  16.6202  16.8037
    17.2860  17.5122  17.7756  18.1064  18.1697  18.3883  19.0268  20.2484
    21.0540  22.6441

          k = 0.2222 0.4444 0.4444 ( 12518 PWs)   bands (ev):

   -69.9364 -69.2276 -69.2233 -69.2206 -35.9996 -35.9993 -35.9927 -35.7662
   -35.5318 -35.4825 -35.2580 -35.2219 -35.2212 -35.1190 -35.1188 -35.0893
     1.9278   9.8897   9.8970  10.8923  14.2095  14.8979  14.9498  15.0890
    15.6723  16.0015  16.1137  16.2022  16.2634  16.3988  16.5122  16.6595
    17.4069  17.4417  17.8215  17.9830  18.1013  18.7646  19.1471  19.9408
    20.4398  22.9022

          k = 0.3333 0.3333 0.3333 ( 12505 PWs)   bands (ev):

   -69.9365 -69.2331 -69.2192 -69.2192 -36.0004 -36.0004 -35.9917 -35.7668
   -35.5089 -35.5089 -35.2425 -35.2281 -35.2281 -35.1093 -35.1093 -35.1048
     1.8294  10.2647  10.2647  10.4018  13.9570  14.9420  14.9945  14.9945
    15.6693  15.6693  16.1352  16.2179  16.2179  16.5753  16.5753  16.7367
    17.4735  17.5586  17.5586  18.2040  18.2040  18.3424  19.7538  19.7538
    21.9452  21.9452

          k = 0.3333 0.3333 0.4444 ( 12520 PWs)   bands (ev):

   -69.9364 -69.2294 -69.2229 -69.2192 -36.0018 -36.0010 -35.9954 -35.7818
   -35.5080 -35.4920 -35.2475 -35.2362 -35.2295 -35.1081 -35.1015 -35.0976
     2.0035   9.8387  10.1794  10.3014  14.0868  14.8130  14.9324  15.0659
    15.7098  15.9686  16.2184  16.2970  16.3761  16.5446  16.5850  16.7067
    17.4820  17.6856  17.7213  18.2225  18.2880  18.3196  19.0864  20.2693
    21.0593  21.9463

          k = 0.3333 0.4444 0.4444 ( 12510 PWs)   bands (ev):

   -69.9364 -69.2264 -69.2233 -69.2218 -36.0031 -36.0030 -35.9993 -35.7982
   -35.4997 -35.4822 -35.2514 -35.2380 -35.2373 -35.0999 -35.0996 -35.0893
     2.1817   9.7650   9.7773  10.1656  14.0871  14.8237  14.8779  14.9433
    15.8648  16.0631  16.2511  16.2630  16.4465  16.8098  16.8158  16.9891
    17.6311  17.6606  17.7496  18.2080  18.2603  18.5488  19.0741  19.6184
    20.9369  21.9308

          k = 0.4444 0.4444 0.4444 ( 12559 PWs)   bands (ev):

   -69.9364 -69.2249 -69.2232 -69.2232 -36.0053 -36.0053 -36.0039 -35.8158
   -35.4821 -35.4821 -35.2479 -35.2457 -35.2457 -35.0896 -35.0896 -35.0889
     2.3651   9.6881   9.6881   9.7164  14.0122  14.7929  14.8334  14.8334
    16.0115  16.0115  16.2630  16.2630  16.3294  17.4465  17.4465  17.4747
    17.7441  17.7441  17.9040  18.3147  18.3147  18.3174  18.9397  18.9397
    21.2442  21.2442

 ------ SPIN DOWN ----------


          k = 0.0000 0.0000 0.0000 ( 12533 PWs)   bands (ev):

   -67.3634 -67.3027 -67.3027 -66.5337 -33.9866 -33.9866 -33.9866 -33.2305
   -33.2305 -33.2305 -33.1918 -33.1918 -33.1918 -32.6392 -32.6392 -32.6392
     0.4462  11.7276  13.3947  13.3947  13.3947  15.2107  15.2107  15.5335
    15.5335  15.5335  18.0411  18.0411  18.0411  18.7045  18.7045  20.2816
    20.2816  20.2816  20.4081  20.4081  20.5092  20.8706  20.8706  20.8706
    23.0633  23.9612

          k = 0.0000 0.0000 0.1111 ( 12537 PWs)   bands (ev):

   -67.3618 -67.3043 -67.3027 -66.5338 -33.9854 -33.9854 -33.9849 -33.2309
   -33.2295 -33.2295 -33.1929 -33.1929 -33.1922 -32.6421 -32.6404 -32.6404
     0.5151  11.7585  13.0942  13.2811  13.2811  15.2705  15.3099  15.5907
    15.6867  15.6867  17.9633  18.1035  18.1035  18.7110  18.8013  20.2359
    20.2359  20.2818  20.3476  20.3644  20.4463  20.6202  20.6202  20.8706
    23.1046  23.6077

          k = 0.0000 0.0000 0.2222 ( 12549 PWs)   bands (ev):

   -67.3570 -67.3088 -67.3026 -66.5340 -33.9823 -33.9823 -33.9805 -33.2319
   -33.2270 -33.2270 -33.1957 -33.1957 -33.1931 -32.6495 -32.6435 -32.6435
     0.6979  11.5209  12.8546  13.0419  13.0419  15.3356  15.5856  15.7544
    16.0359  16.0359  17.7479  18.2772  18.2772  18.7204  18.8137  19.9887
    19.9887  20.1242  20.1428  20.2201  20.2201  20.2823  20.3765  20.8708
    23.0981  23.2963

          k = 0.0000 0.0000 0.3333 ( 12553 PWs)   bands (ev):

   -67.3501 -67.3154 -67.3026 -66.5343 -33.9787 -33.9787 -33.9754 -33.2330
   -33.2241 -33.2241 -33.1989 -33.1989 -33.1940 -32.6579 -32.6470 -32.6470
     0.9223  10.8625  12.8209  12.8209  13.2717  15.2192  15.9595  15.9955
    16.4088  16.4088  17.4486  18.5181  18.5181  18.5892  18.7025  19.4683
    19.4683  19.7687  19.8262  20.0526  20.0526  20.2828  20.3214  20.8710
    22.9354  23.5438

          k = 0.0000 0.0000 0.4444 ( 12544 PWs)   bands (ev):

   -67.3436 -67.3217 -67.3026 -66.5344 -33.9763 -33.9763 -33.9720 -33.2337
   -33.2223 -33.2223 -33.2009 -33.2009 -33.1947 -32.6634 -32.6493 -32.6493
     1.0802  10.3964  12.6954  12.6954  13.9346  14.7947  16.2270  16.2615
    16.6609  16.6609  17.1793  18.4155  18.6440  18.7635  18.7635  19.0530
    19.0530  19.4979  19.6037  19.9434  19.9434  20.2832  20.2854  20.8712
    22.9014  23.7477

          k = 0.0000 0.1111 0.1111 ( 12557 PWs)   bands (ev):

   -67.3601 -67.3050 -67.3035 -66.5339 -33.9981 -33.9842 -33.9694 -33.2350
   -33.2285 -33.2276 -33.1976 -33.1941 -33.1866 -32.6459 -32.6417 -32.6400
     0.5841  11.7908  12.8620  13.1405  13.1801  15.3466  15.3811  15.6567
    15.8146  15.8154  17.9270  18.1262  18.1578  18.7521  18.7966  20.1517
    20.1885  20.2134  20.2572  20.3571  20.4302  20.5233  20.5311  20.7748
    23.1396  23.8583

          k = 0.0000 0.1111 0.2222 ( 12548 PWs)   bands (ev):

   -67.3555 -67.3091 -67.3038 -66.5341 -34.0074 -33.9811 -33.9533 -33.2421
   -33.2258 -33.2254 -33.2009 -33.1969 -33.1814 -32.6523 -32.6448 -32.6422
     0.7670  11.5461  12.5126  12.9610  13.0783  15.4217  15.6385  15.8235
    16.1193  16.1286  17.7348  18.2827  18.2970  18.6946  18.7299  19.8199
    19.9569  19.9614  20.0876  20.2025  20.3612  20.3779  20.4818  20.7402
    23.2070  23.4011

          k = 0.0000 0.1111 0.3333 ( 12541 PWs)   bands (ev):

   -67.3488 -67.3154 -67.3038 -66.5343 -34.0131 -33.9775 -33.9397 -33.2491
   -33.2230 -33.2229 -33.2031 -33.2000 -33.1781 -32.6582 -32.6483 -32.6460
     0.9917  10.8682  12.4340  12.7535  13.4031  15.3131  16.0057  16.0654
    16.4578  16.4683  17.4442  18.3443  18.4937  18.5276  18.6583  19.4836
    19.5000  19.7219  19.8937  19.9374  20.2479  20.3629  20.3843  20.7409
    23.1201  23.4630

          k = 0.0000 0.1111 0.4444 ( 12514 PWs)   bands (ev):

   -67.3424 -67.3217 -67.3038 -66.5345 -34.0156 -33.9752 -33.9319 -33.2535
   -33.2212 -33.2210 -33.2044 -33.2020 -33.1767 -32.6617 -32.6506 -32.6489
     1.1499  10.3978  12.3629  12.6342  14.0097  14.9058  16.3026  16.3041
    16.6882  16.7030  17.1801  18.1820  18.3306  18.7855  18.7915  19.0850
    19.3044  19.5822  19.6173  19.8228  20.1430  20.3059  20.3646  20.7425
    23.1030  23.5992

          k = 0.0000 0.2222 0.2222 ( 12528 PWs)   bands (ev):

   -67.3512 -67.3108 -67.3060 -66.5343 -34.0288 -33.9781 -33.9267 -33.2582
   -33.2256 -33.2230 -33.2046 -33.1997 -33.1670 -32.6561 -32.6479 -32.6422
     0.9505  11.4991  11.8222  12.7778  13.2516  15.6150  15.7741  15.9973
    16.3297  16.3637  17.6309  18.2673  18.3695  18.5061  18.5786  19.6836
    19.7679  19.8180  19.9190  20.0933  20.4436  20.4475  20.5155  20.6848
    23.1191  23.9532

          k = 0.0000 0.2222 0.3333 ( 12527 PWs)   bands (ev):

   -67.3450 -67.3158 -67.3070 -66.5345 -34.0438 -33.9747 -33.9056 -33.2718
   -33.2253 -33.2198 -33.2088 -33.2029 -33.1558 -32.6578 -32.6516 -32.6446
     1.1762  10.8718  11.6511  12.5968  13.6634  15.5697  16.0778  16.2382
    16.5924  16.6216  17.4052  17.9795  18.2658  18.5837  18.5887  19.5183
    19.5367  19.7117  19.7451  19.8915  20.4106  20.4110  20.4839  20.6811
    23.0115  23.7343

          k = 0.0000 0.2222 0.4444 ( 12515 PWs)   bands (ev):

   -67.3389 -67.3216 -67.3072 -66.5346 -34.0515 -33.9724 -33.8939 -33.2795
   -33.2242 -33.2177 -33.2127 -33.2049 -33.1498 -32.6572 -32.6540 -32.6479
     1.3354  10.3960  11.6141  12.4903  14.2181  15.2000  16.3418  16.4883
    16.7633  16.8471  17.1757  17.7079  18.1342  18.6117  18.8660  19.1779
    19.3753  19.6217  19.6727  19.8136  20.3953  20.4157  20.4753  20.5143
    23.0488  23.6571

          k = 0.0000 0.3333 0.3333 ( 12518 PWs)   bands (ev):

   -67.3394 -67.3175 -67.3107 -66.5346 -34.0662 -33.9714 -33.8794 -33.2898
   -33.2277 -33.2162 -33.2160 -33.2061 -33.1381 -32.6556 -32.6554 -32.6448
     1.4037  10.8319  10.8969  12.4375  14.0754  15.8683  16.0259  16.4608
    16.7896  16.7990  17.2930  17.6315  18.0635  18.5078  18.7329  19.3588
    19.5305  19.5347  19.7313  19.9248  20.1459  20.5072  20.5137  20.8574
    22.5355  24.3133

          k = 0.0000 0.3333 0.4444 ( 12517 PWs)   bands (ev):

   -67.3336 -67.3215 -67.3123 -66.5347 -34.0779 -33.9692 -33.8650 -33.2994
   -33.2280 -33.2221 -33.2140 -33.2081 -33.1285 -32.6579 -32.6521 -32.6469
     1.5646  10.3852  10.8476  12.3419  14.5567  15.6032  16.2203  16.6897
    16.8594  17.0665  17.1526  17.3659  17.9798  18.4025  18.9744  19.2075
    19.2665  19.5028  19.5849  20.0347  20.0959  20.5257  20.5913  20.7762
    22.3309  24.3166

          k = 0.0000 0.4444 0.4444 ( 12492 PWs)   bands (ev):

   -67.3276 -67.3218 -67.3178 -66.5348 -34.0919 -33.9671 -33.8493 -33.3101
   -33.2302 -33.2285 -33.2115 -33.2103 -33.1169 -32.6605 -32.6484 -32.6468
     1.7269  10.3717  10.3756  12.2522  14.9225  15.9621  15.9822  16.8460
    16.9116  16.9141  17.1166  17.5507  17.9119  18.1332  19.0468  19.0620
    19.3044  19.4723  19.5335  19.7152  20.2626  20.5384  20.7784  20.8775
    21.8696  24.8265

          k = 0.1111 0.1111 0.1111 ( 12563 PWs)   bands (ev):

   -67.3585 -67.3050 -67.3050 -66.5340 -34.0114 -33.9683 -33.9683 -33.2359
   -33.2306 -33.2306 -33.1955 -33.1955 -33.1827 -32.6496 -32.6409 -32.6409
     0.6531  11.8237  12.7771  12.7771  13.1934  15.4347  15.4347  15.7978
    15.7978  15.9799  17.8993  18.1707  18.1707  18.7705  18.7705  20.0057
    20.1165  20.1421  20.1421  20.4005  20.4005  20.4020  20.6831  20.6831
    23.1809  24.0625

          k = 0.1111 0.1111 0.2222 ( 12529 PWs)   bands (ev):

   -67.3540 -67.3092 -67.3049 -66.5342 -34.0258 -33.9655 -33.9475 -33.2433
   -33.2379 -33.2286 -33.1954 -33.1927 -33.1770 -32.6554 -32.6433 -32.6427
     0.8362  11.5661  12.4035  12.5861  13.2014  15.5070  15.6956  15.9214
    16.1319  16.2323  17.7284  18.2745  18.2894  18.6800  18.6803  19.6474
    19.7883  19.9248  19.9926  20.2987  20.4491  20.4713  20.5380  20.7272
    23.2584  23.5522

          k = 0.1111 0.1111 0.3333 ( 12526 PWs)   bands (ev):

   -67.3475 -67.3155 -67.3049 -66.5344 -34.0355 -33.9623 -33.9304 -33.2515
   -33.2455 -33.2239 -33.1936 -33.1924 -33.1727 -32.6594 -32.6473 -32.6459
     1.0614  10.8679  12.3698  12.3989  13.5154  15.4058  16.0630  16.1447
    16.4745  16.5167  17.4469  18.2330  18.3236  18.6234  18.6584  19.2549
    19.5474  19.7154  19.8095  20.1299  20.3506  20.3762  20.5339  20.6671
    23.2543  23.4788

          k = 0.1111 0.1111 0.4444 ( 12521 PWs)   bands (ev):

   -67.3412 -67.3216 -67.3049 -66.5345 -34.0403 -33.9602 -33.9207 -33.2563
   -33.2502 -33.2198 -33.1938 -33.1922 -33.1706 -32.6602 -32.6519 -32.6477
     1.2200  10.3941  12.2892  12.3294  14.0812  15.0140  16.3634  16.3822
    16.6154  16.8201  17.1838  17.9896  18.2135  18.7872  18.8092  19.0182
    19.2798  19.6462  19.6872  20.0049  20.1066  20.3068  20.5543  20.6459
    23.2675  23.5689

          k = 0.1111 0.2222 0.2222 ( 12537 PWs)   bands (ev):

   -67.3499 -67.3108 -67.3073 -66.5343 -34.0488 -33.9566 -33.9259 -33.2587
   -33.2401 -33.2389 -33.1905 -33.1874 -33.1655 -32.6594 -32.6450 -32.6423
     1.0201  11.5141  11.7663  12.3869  13.3760  15.7044  15.8409  16.1110
    16.3312  16.3849  17.6415  18.2107  18.2628  18.5891  18.6016  19.4315
    19.5364  19.8334  19.8427  20.2437  20.4422  20.4844  20.7324  20.8285
    23.2302  23.9473

          k = 0.1111 0.2222 0.3333 ( 12525 PWs)   bands (ev):

   -67.3439 -67.3159 -67.3080 -66.5345 -34.0657 -33.9526 -33.9042 -33.2733
   -33.2497 -33.2378 -33.1876 -33.1852 -33.1549 -32.6603 -32.6480 -32.6443
     1.2465  10.8574  11.6115  12.2609  13.7620  15.6578  16.1554  16.3303
    16.5270  16.6653  17.4261  17.9405  18.1448  18.6006  18.6607  19.2781
    19.3044  19.7069  19.8062  20.0895  20.3803  20.4333  20.7263  20.8362
    23.1213  23.7696

          k = 0.1111 0.2222 0.4444 ( 12540 PWs)   bands (ev):

   -67.3380 -67.3215 -67.3081 -66.5346 -34.0745 -33.9504 -33.8918 -33.2814
   -33.2555 -33.2366 -33.1859 -33.1850 -33.1491 -32.6575 -32.6525 -32.6463
     1.4063  10.3800  11.5686  12.1835  14.2830  15.2976  16.4053  16.5686
    16.6593  16.9776  17.1955  17.6108  18.0537  18.6267  18.8410  19.0776
    19.1792  19.7030  19.8059  19.9540  20.3195  20.3830  20.4880  20.8719
    23.1471  23.7262

          k = 0.1111 0.3333 0.3333 ( 12528 PWs)   bands (ev):

   -67.3386 -67.3175 -67.3115 -66.5346 -34.0888 -33.9482 -33.8790 -33.2921
   -33.2524 -33.2490 -33.1846 -33.1828 -33.1378 -32.6592 -32.6492 -32.6441
     1.4750  10.8123  10.8546  12.1296  14.1547  15.9504  16.0732  16.5539
    16.6811  16.8732  17.3268  17.6479  17.9842  18.5072  18.7405  19.0987
    19.3923  19.5426  19.9238  19.9248  20.2617  20.4111  20.8983  20.9778
    22.5960  24.2109

          k = 0.1111 0.3333 0.4444 ( 12508 PWs)   bands (ev):

   -67.3330 -67.3214 -67.3129 -66.5347 -34.1011 -33.9459 -33.8647 -33.3022
   -33.2583 -33.2513 -33.1831 -33.1823 -33.1283 -32.6573 -32.6497 -32.6455
     1.6367  10.3567  10.8090  12.0486  14.6042  15.6785  16.2441  16.7772
    16.8627  17.0624  17.1775  17.4109  17.9283  18.4037  18.8155  18.9912
    19.3558  19.5850  19.7344  19.9964  20.1409  20.5093  20.7319  21.0728
    22.3519  24.2446

          k = 0.1111 0.4444 0.4444 ( 12499 PWs)   bands (ev):

   -67.3273 -67.3218 -67.3181 -66.5348 -34.1154 -33.9437 -33.8493 -33.3133
   -33.2604 -33.2597 -33.1817 -33.1815 -33.1168 -32.6579 -32.6468 -32.6455
     1.8001  10.3371  10.3387  11.9661  14.9331  15.9995  16.0392  16.8468
    16.9393  17.0014  17.1564  17.6199  17.8810  18.1382  18.6867  19.0343
    19.4389  19.5799  19.6274  19.9198  19.9908  20.7270  20.8653  21.1310
    21.8234  24.5854

          k = 0.2222 0.2222 0.2222 ( 12524 PWs)   bands (ev):

   -67.3462 -67.3108 -67.3108 -66.5344 -34.0775 -33.9239 -33.9239 -33.2612
   -33.2612 -33.2585 -33.1745 -33.1745 -33.1596 -32.6624 -32.6427 -32.6427
     1.2051  11.5056  11.6332  11.6332  13.6117  15.9656  15.9656  16.3811
    16.3961  16.3961  17.6134  18.0859  18.0859  18.6335  18.6335  19.2215
    19.2255  19.7409  19.7409  20.3381  20.4370  20.4370  21.0801  21.0801
    23.3972  23.8153

          k = 0.2222 0.2222 0.3333 ( 12517 PWs)   bands (ev):

   -67.3408 -67.3160 -67.3108 -66.5346 -34.0995 -33.9216 -33.8973 -33.2782
   -33.2759 -33.2613 -33.1694 -33.1640 -33.1501 -32.6614 -32.6443 -32.6432
     1.4335  10.8143  11.4941  11.5403  14.0010  15.8917  16.3473  16.3801
    16.5659  16.7438  17.4589  17.8192  17.9647  18.6057  18.6850  18.9744
    19.2131  19.6809  19.7893  20.2383  20.3908  20.4169  20.9557  21.2854
    23.3373  23.6137

          k = 0.2222 0.2222 0.4444 ( 12513 PWs)   bands (ev):

   -67.3352 -67.3214 -67.3107 -66.5346 -34.1113 -33.9201 -33.8825 -33.2877
   -33.2846 -33.2624 -33.1677 -33.1591 -33.1441 -32.6568 -32.6490 -32.6435
     1.5951  10.3372  11.4092  11.5220  14.4638  15.5468  16.4097  16.6963
    16.7870  17.0773  17.2510  17.4545  17.9242  18.6153  18.7202  18.7986
    19.2516  19.7833  19.8994  20.1209  20.3447  20.3567  20.5389  21.3917
    23.3746  23.4639

          k = 0.2222 0.3333 0.3333 ( 12520 PWs)   bands (ev):

   -67.3361 -67.3174 -67.3138 -66.5346 -34.1263 -33.9093 -33.8781 -33.2981
   -33.2825 -33.2786 -33.1585 -33.1566 -33.1369 -32.6587 -32.6433 -32.6424
     1.6651  10.7517  10.7597  11.4197  14.3573  16.1251  16.1725  16.5859
    16.7955  16.9206  17.4225  17.6826  17.8430  18.5146  18.6474  18.7609
    19.3524  19.6420  19.8903  20.1761  20.3802  20.3973  21.0668  21.4859
    22.7512  23.7078

          k = 0.2222 0.3333 0.4444 ( 12507 PWs)   bands (ev):

   -67.3311 -67.3214 -67.3147 -66.5347 -34.1408 -33.9063 -33.8634 -33.3092
   -33.2912 -33.2830 -33.1561 -33.1519 -33.1279 -32.6542 -32.6451 -32.6421
     1.8294  10.2852  10.7137  11.3579  14.7231  15.8567  16.2686  16.8383
    17.0106  17.0609  17.3086  17.5571  17.8458  18.4189  18.5336  18.7259
    19.4677  19.7471  19.9624  20.0610  20.3209  20.4541  20.7320  21.6894
    22.3541  23.6880

          k = 0.2222 0.4444 0.4444 ( 12518 PWs)   bands (ev):

   -67.3264 -67.3218 -67.3189 -66.5347 -34.1568 -33.9024 -33.8491 -33.3212
   -33.2950 -33.2943 -33.1507 -33.1505 -33.1167 -32.6513 -32.6427 -32.6423
     1.9960  10.2478  10.2519  11.2849  14.9443  16.0836  16.1699  16.6778
    17.2033  17.2398  17.3383  17.7452  17.8432  18.1948  18.3673  18.7274
    19.6940  19.7348  19.8890  19.9597  20.2298  20.6464  20.8149  21.6134
    21.8563  23.8902

          k = 0.3333 0.3333 0.3333 ( 12505 PWs)   bands (ev):

   -67.3324 -67.3174 -67.3174 -66.5347 -34.1569 -33.8770 -33.8770 -33.3058
   -33.3058 -33.2999 -33.1404 -33.1404 -33.1333 -32.6543 -32.6403 -32.6403
     1.9011  10.6409  10.6409  10.7350  14.6291  16.0839  16.4465  16.4465
    17.0957  17.0957  17.5101  17.7471  17.7471  18.4505  18.5255  18.5255
    19.5063  19.8514  19.8514  20.2896  20.3760  20.3760  21.3674  21.3674
    22.9688  22.9688

          k = 0.3333 0.3333 0.4444 ( 12520 PWs)   bands (ev):

   -67.3283 -67.3214 -67.3174 -66.5347 -34.1736 -33.8763 -33.8593 -33.3184
   -33.3145 -33.3075 -33.1377 -33.1312 -33.1256 -32.6488 -32.6410 -32.6390
     2.0694  10.2049  10.5718  10.6654  14.8542  16.0352  16.2875  16.6327
    17.3154  17.3326  17.5108  17.7315  17.8242  18.2898  18.4213  18.5172
    19.6667  19.9042  20.0202  20.2100  20.3905  20.4081  20.7759  21.7175
    22.3421  23.1529

          k = 0.3333 0.4444 0.4444 ( 12510 PWs)   bands (ev):

   -67.3251 -67.3217 -67.3202 -66.5347 -34.1916 -33.8678 -33.8489 -33.3300
   -33.3214 -33.3206 -33.1284 -33.1281 -33.1166 -32.6436 -32.6385 -32.6383
     2.2409  10.1489  10.1584  10.5576  14.9331  16.1686  16.2822  16.4795
    17.5926  17.5995  17.6672  17.8601  17.8665  18.1334  18.3001  18.4924
    19.8638  19.9511  20.0417  20.1414  20.4197  20.4853  20.7228  21.2312
    22.3660  23.1195

          k = 0.4444 0.4444 0.4444 ( 12559 PWs)   bands (ev):

   -67.3235 -67.3217 -67.3217 -66.5347 -34.2107 -33.8488 -33.8488 -33.3357
   -33.3357 -33.3347 -33.1169 -33.1169 -33.1161 -32.6381 -32.6361 -32.6361
     2.4166  10.0867  10.0867  10.1093  14.9150  16.2386  16.3299  16.3299
    17.8949  17.8949  17.9810  17.9810  17.9853  18.0023  18.3664  18.3664
    20.0131  20.0710  20.0710  20.2604  20.3447  20.3447  20.7349  20.7349
    22.6687  22.6687

     the Fermi energy is    18.7319 ev

!    total energy              =   -1345.17094956 Ry
     Harris-Foulkes estimate   =   -1345.17094956 Ry
     estimated scf accuracy    <          5.6E-09 Ry

     total all-electron energy =    -10291.772585 Ry

     The total energy is the sum of the following terms:

     one-electron contribution =    -446.73700942 Ry
     hartree contribution      =     269.20186437 Ry
     xc contribution           =    -117.08715814 Ry
     ewald contribution        =    -711.61403732 Ry
     one-center paw contrib.   =    -338.93469926 Ry
     smearing contrib. (-TS)   =       0.00009021 Ry

     total magnetization       =     7.68 Bohr mag/cell
     absolute magnetization    =     8.03 Bohr mag/cell

     convergence has been achieved in  27 iterations

     Forces acting on atoms (Ry/au):


     negative rho (up, down):  0.000E+00 1.396E-04
     atom    1 type  1   force =     0.00000000    0.00000000    0.00000000
     atom    2 type  1   force =     0.00000000    0.00000000    0.00000000
     atom    3 type  1   force =     0.00000000    0.00000000    0.00000000
     atom    4 type  1   force =     0.00000000    0.00000000    0.00000000
     atom    5 type  2   force =     0.00000000    0.00000000    0.00000000

     Total force =     0.000000     Total SCF correction =     0.000000


     entering subroutine stress ...


     negative rho (up, down):  0.000E+00 1.396E-04
          total   stress  (Ry/bohr**3)                   (kbar)     P=  149.31
   0.00101498   0.00000000   0.00000000        149.31      0.00      0.00
   0.00000000   0.00101498   0.00000000          0.00    149.31      0.00
   0.00000000   0.00000000   0.00101498          0.00      0.00    149.31


     Writing output data file config.save
 
     init_run     :      6.16s CPU      6.42s WALL (       1 calls)
     electrons    :    433.45s CPU    444.86s WALL (       1 calls)
     forces       :      1.57s CPU      1.61s WALL (       1 calls)
     stress       :      5.63s CPU      5.73s WALL (       1 calls)

     Called by init_run:
     wfcinit      :      5.09s CPU      5.26s WALL (       1 calls)
     potinit      :      0.51s CPU      0.53s WALL (       1 calls)

     Called by electrons:
     c_bands      :    350.34s CPU    358.51s WALL (      27 calls)
     sum_band     :     66.29s CPU     68.26s WALL (      27 calls)
     v_of_rho     :      2.73s CPU      2.79s WALL (      28 calls)
     newd         :      3.14s CPU      3.74s WALL (      28 calls)
     mix_rho      :      0.79s CPU      0.81s WALL (      27 calls)

     Called by c_bands:
     init_us_2    :      7.57s CPU      7.77s WALL (    3990 calls)
     cegterg      :    323.66s CPU    331.20s WALL (    1890 calls)

     Called by sum_band:
     sum_band:bec :      0.07s CPU      0.07s WALL (    1890 calls)
     addusdens    :      7.30s CPU      8.18s WALL (      27 calls)

     Called by *egterg:
     h_psi        :    228.94s CPU    234.24s WALL (    6551 calls)
     s_psi        :     11.47s CPU     11.68s WALL (    6551 calls)
     g_psi        :      2.02s CPU      2.07s WALL (    4591 calls)
     cdiaghg      :     18.91s CPU     19.20s WALL (    6481 calls)

     Called by h_psi:
     add_vuspsi   :     11.08s CPU     11.34s WALL (    6551 calls)

     General routines
     calbec       :     17.90s CPU     18.35s WALL (    8791 calls)
     fft          :      1.50s CPU      1.52s WALL (     902 calls)
     ffts         :      0.10s CPU      0.10s WALL (     110 calls)
     fftw         :    202.73s CPU    207.30s WALL (  455400 calls)
     interpolate  :      0.35s CPU      0.36s WALL (     110 calls)
     davcio       :      0.13s CPU      0.40s WALL (      70 calls)
 
     Parallel routines
     fft_scatter  :     74.49s CPU     76.32s WALL (  456412 calls)

     PAW routines
     PAW_pot      :     10.38s CPU     10.90s WALL (      28 calls)
     PAW_symme    :      0.04s CPU      0.04s WALL (      55 calls)
 
     PWSCF        :  7m27.53s CPU     7m39.70s WALL

 
   This run was terminated on:  14:33:57  27Oct2020            

=------------------------------------------------------------------------------=
   JOB DONE.
=------------------------------------------------------------------------------=
