
     Program PWSCF v.5.2.0 starts on 27Oct2020 at 14:44:52 

     This program is part of the open-source Quantum ESPRESSO suite
     for quantum simulation of materials; please cite
         "P. Giannozzi et al., J. Phys.:Condens. Matter 21 395502 (2009);
          URL http://www.quantum-espresso.org", 
     in publications or presentations arising from this work. More details at
     http://www.quantum-espresso.org/quote

     Parallel version (MPI), running on     6 processors
     R & G space division:  proc/nbgrp/npool/nimage =       6
     Reading input from 6.in

     Current dimensions of program PWSCF are:
     Max number of different atomic species (ntypx) = 10
     Max number of k-points (npk) =  40000
     Max angular momentum in pseudopotentials (lmaxx) =  3

     IMPORTANT: XC functional enforced from input :
     Exchange-correlation      = PBE ( 1  4  3  4 0 0)
     Any further DFT definition will be discarded
     Please, verify this is what you really want

               file Fe_PSEUDO: wavefunction(s)  3P 3D renormalized
               file N_PSEUDO: wavefunction(s)  2S renormalized

     Subspace diagonalization in iterative solution of the eigenvalue problem:
     a serial algorithm will be used

 
     Parallelization info
     --------------------
     sticks:   dense  smooth     PW     G-vecs:    dense   smooth      PW
     Min         651     433    120                30683    16721    2460
     Max         652     434    121                30688    16738    2463
     Sum        3909    2601    725               184115   100377   14771
 
     Generating pointlists ...
     new r_m :   0.2063 (alat units)  1.4318 (a.u.) for type    1
     new r_m :   0.2063 (alat units)  1.4318 (a.u.) for type    2


     bravais-lattice index     =            0
     lattice parameter (alat)  =       6.9422  a.u.
     unit-cell volume          =     334.5777 (a.u.)^3
     number of atoms/cell      =            5
     number of atomic types    =            2
     number of electrons       =        69.00
     number of Kohn-Sham states=           42
     kinetic-energy cutoff     =     170.0000  Ry
     charge density cutoff     =    1020.0000  Ry
     convergence threshold     =      1.0E-08
     mixing beta               =       0.7000
     number of iterations used =            8  plain     mixing
     Exchange-correlation      = PBE ( 1  4  3  4 0 0)

     celldm(1)=   6.942230  celldm(2)=   0.000000  celldm(3)=   0.000000
     celldm(4)=   0.000000  celldm(5)=   0.000000  celldm(6)=   0.000000

     crystal axes: (cart. coord. in units of alat)
               a(1) = (   1.000000   0.000000   0.000000 )  
               a(2) = (   0.000000   1.000000   0.000000 )  
               a(3) = (   0.000000   0.000000   1.000000 )  

     reciprocal axes: (cart. coord. in units 2 pi/alat)
               b(1) = (  1.000000  0.000000  0.000000 )  
               b(2) = (  0.000000  1.000000  0.000000 )  
               b(3) = (  0.000000  0.000000  1.000000 )  


     PseudoPot. # 1 for Fe read from file:
     pseudo/Fe_PSEUDO
     MD5 check sum: e30d5f36a6f0cb983ee41abee56170da
     Pseudo is Projector augmented-wave + core cor, Zval = 16.0
     Generated using "atomic" code by A. Dal Corso  v.6.3
     Shape of augmentation charge: PSQ
     Using radial grid of 1191 points,  6 beta functions with: 
                l(1) =   0
                l(2) =   0
                l(3) =   1
                l(4) =   1
                l(5) =   2
                l(6) =   2
     Q(r) pseudized with 0 coefficients 


     PseudoPot. # 2 for  N read from file:
     pseudo/N_PSEUDO
     MD5 check sum: 14c48229446f9f2d411169a3abcbc3fa
     Pseudo is Projector augmented-wave + core cor, Zval =  5.0
     Generated using "atomic" code by A. Dal Corso  v.6.3
     Shape of augmentation charge: PSQ
     Using radial grid of 1085 points,  4 beta functions with: 
                l(1) =   0
                l(2) =   0
                l(3) =   1
                l(4) =   1
     Q(r) pseudized with 0 coefficients 


     atomic species   valence    mass     pseudopotential
        Fe            16.00    55.84500     Fe( 1.00)
        N              5.00    14.00650      N( 1.00)

     Starting magnetic structure 
     atomic species   magnetization
        Fe           0.500
        N           -0.010

     48 Sym. Ops., with inversion, found



   Cartesian axes

     site n.     atom                  positions (alat units)
         1           Fe  tau(   1) = (   0.0000000   0.5000000   0.5000000  )
         2           Fe  tau(   2) = (   0.5000000   0.5000000   0.0000000  )
         3           Fe  tau(   3) = (   0.5000000   0.0000000   0.5000000  )
         4           Fe  tau(   4) = (   0.0000000   0.0000000   0.0000000  )
         5           N   tau(   5) = (   0.5000000   0.5000000   0.5000000  )

     number of k points=    70  Marzari-Vanderbilt smearing, width (Ry)=  0.0050
                       cart. coord. in units 2pi/alat
        k(    1) = (   0.0000000   0.0000000   0.0000000), wk =   0.0013717
        k(    2) = (   0.0000000   0.0000000   0.1111111), wk =   0.0082305
        k(    3) = (   0.0000000   0.0000000   0.2222222), wk =   0.0082305
        k(    4) = (   0.0000000   0.0000000   0.3333333), wk =   0.0082305
        k(    5) = (   0.0000000   0.0000000   0.4444444), wk =   0.0082305
        k(    6) = (   0.0000000   0.1111111   0.1111111), wk =   0.0164609
        k(    7) = (   0.0000000   0.1111111   0.2222222), wk =   0.0329218
        k(    8) = (   0.0000000   0.1111111   0.3333333), wk =   0.0329218
        k(    9) = (   0.0000000   0.1111111   0.4444444), wk =   0.0329218
        k(   10) = (   0.0000000   0.2222222   0.2222222), wk =   0.0164609
        k(   11) = (   0.0000000   0.2222222   0.3333333), wk =   0.0329218
        k(   12) = (   0.0000000   0.2222222   0.4444444), wk =   0.0329218
        k(   13) = (   0.0000000   0.3333333   0.3333333), wk =   0.0164609
        k(   14) = (   0.0000000   0.3333333   0.4444444), wk =   0.0329218
        k(   15) = (   0.0000000   0.4444444   0.4444444), wk =   0.0164609
        k(   16) = (   0.1111111   0.1111111   0.1111111), wk =   0.0109739
        k(   17) = (   0.1111111   0.1111111   0.2222222), wk =   0.0329218
        k(   18) = (   0.1111111   0.1111111   0.3333333), wk =   0.0329218
        k(   19) = (   0.1111111   0.1111111   0.4444444), wk =   0.0329218
        k(   20) = (   0.1111111   0.2222222   0.2222222), wk =   0.0329218
        k(   21) = (   0.1111111   0.2222222   0.3333333), wk =   0.0658436
        k(   22) = (   0.1111111   0.2222222   0.4444444), wk =   0.0658436
        k(   23) = (   0.1111111   0.3333333   0.3333333), wk =   0.0329218
        k(   24) = (   0.1111111   0.3333333   0.4444444), wk =   0.0658436
        k(   25) = (   0.1111111   0.4444444   0.4444444), wk =   0.0329218
        k(   26) = (   0.2222222   0.2222222   0.2222222), wk =   0.0109739
        k(   27) = (   0.2222222   0.2222222   0.3333333), wk =   0.0329218
        k(   28) = (   0.2222222   0.2222222   0.4444444), wk =   0.0329218
        k(   29) = (   0.2222222   0.3333333   0.3333333), wk =   0.0329218
        k(   30) = (   0.2222222   0.3333333   0.4444444), wk =   0.0658436
        k(   31) = (   0.2222222   0.4444444   0.4444444), wk =   0.0329218
        k(   32) = (   0.3333333   0.3333333   0.3333333), wk =   0.0109739
        k(   33) = (   0.3333333   0.3333333   0.4444444), wk =   0.0329218
        k(   34) = (   0.3333333   0.4444444   0.4444444), wk =   0.0329218
        k(   35) = (   0.4444444   0.4444444   0.4444444), wk =   0.0109739
        k(   36) = (   0.0000000   0.0000000   0.0000000), wk =   0.0013717
        k(   37) = (   0.0000000   0.0000000   0.1111111), wk =   0.0082305
        k(   38) = (   0.0000000   0.0000000   0.2222222), wk =   0.0082305
        k(   39) = (   0.0000000   0.0000000   0.3333333), wk =   0.0082305
        k(   40) = (   0.0000000   0.0000000   0.4444444), wk =   0.0082305
        k(   41) = (   0.0000000   0.1111111   0.1111111), wk =   0.0164609
        k(   42) = (   0.0000000   0.1111111   0.2222222), wk =   0.0329218
        k(   43) = (   0.0000000   0.1111111   0.3333333), wk =   0.0329218
        k(   44) = (   0.0000000   0.1111111   0.4444444), wk =   0.0329218
        k(   45) = (   0.0000000   0.2222222   0.2222222), wk =   0.0164609
        k(   46) = (   0.0000000   0.2222222   0.3333333), wk =   0.0329218
        k(   47) = (   0.0000000   0.2222222   0.4444444), wk =   0.0329218
        k(   48) = (   0.0000000   0.3333333   0.3333333), wk =   0.0164609
        k(   49) = (   0.0000000   0.3333333   0.4444444), wk =   0.0329218
        k(   50) = (   0.0000000   0.4444444   0.4444444), wk =   0.0164609
        k(   51) = (   0.1111111   0.1111111   0.1111111), wk =   0.0109739
        k(   52) = (   0.1111111   0.1111111   0.2222222), wk =   0.0329218
        k(   53) = (   0.1111111   0.1111111   0.3333333), wk =   0.0329218
        k(   54) = (   0.1111111   0.1111111   0.4444444), wk =   0.0329218
        k(   55) = (   0.1111111   0.2222222   0.2222222), wk =   0.0329218
        k(   56) = (   0.1111111   0.2222222   0.3333333), wk =   0.0658436
        k(   57) = (   0.1111111   0.2222222   0.4444444), wk =   0.0658436
        k(   58) = (   0.1111111   0.3333333   0.3333333), wk =   0.0329218
        k(   59) = (   0.1111111   0.3333333   0.4444444), wk =   0.0658436
        k(   60) = (   0.1111111   0.4444444   0.4444444), wk =   0.0329218
        k(   61) = (   0.2222222   0.2222222   0.2222222), wk =   0.0109739
        k(   62) = (   0.2222222   0.2222222   0.3333333), wk =   0.0329218
        k(   63) = (   0.2222222   0.2222222   0.4444444), wk =   0.0329218
        k(   64) = (   0.2222222   0.3333333   0.3333333), wk =   0.0329218
        k(   65) = (   0.2222222   0.3333333   0.4444444), wk =   0.0658436
        k(   66) = (   0.2222222   0.4444444   0.4444444), wk =   0.0329218
        k(   67) = (   0.3333333   0.3333333   0.3333333), wk =   0.0109739
        k(   68) = (   0.3333333   0.3333333   0.4444444), wk =   0.0329218
        k(   69) = (   0.3333333   0.4444444   0.4444444), wk =   0.0329218
        k(   70) = (   0.4444444   0.4444444   0.4444444), wk =   0.0109739

     Dense  grid:   184115 G-vectors     FFT dimensions: (  72,  72,  72)

     Smooth grid:   100377 G-vectors     FFT dimensions: (  60,  60,  60)

     Largest allocated arrays     est. size (Mb)     dimensions
        Kohn-Sham Wavefunctions         1.36 Mb     (    2124,   42)
        NL pseudopotentials             2.59 Mb     (    2124,   80)
        Each V/rho on FFT grid          1.90 Mb     (   62208,   2)
        Each G-vector array             0.23 Mb     (   30685)
        G-vector shells                 0.01 Mb     (    1032)
     Largest temporary arrays     est. size (Mb)     dimensions
        Auxiliary wavefunctions         5.44 Mb     (    2124,  168)
        Each subspace H/S matrix        0.43 Mb     (     168,  168)
        Each <psi_i|beta_j> matrix      0.05 Mb     (      80,   42)
        Arrays for rho mixing           7.59 Mb     (   62208,    8)

     Initial potential from superposition of free atoms

     starting charge   68.99837, renormalised to   69.00000
     Starting wfc are   44 randomized atomic wfcs
     Checking if some PAW data can be deallocated... 

     total cpu time spent up to now is        7.4 secs

     per-process dynamical memory:   151.0 Mb

     Self-consistent Calculation

     iteration #  1     ecut=   170.00 Ry     beta=0.70
     Davidson diagonalization with overlap
     ethr =  1.00E-02,  avg # of iterations =  3.1

     negative rho (up, down):  0.000E+00 3.376E-04
 
     Magnetic moment per site:
     atom:    1    charge:   12.7332    magn:    4.0971    constr:    0.0000
     atom:    2    charge:   12.7332    magn:    4.0971    constr:    0.0000
     atom:    3    charge:   12.7332    magn:    4.0971    constr:    0.0000
     atom:    4    charge:   12.6142    magn:    4.1667    constr:    0.0000
     atom:    5    charge:    4.6356    magn:    0.1183    constr:    0.0000

     total cpu time spent up to now is       26.0 secs

     total energy              =   -1344.14600057 Ry
     Harris-Foulkes estimate   =   -1343.44658955 Ry
     estimated scf accuracy    <       2.86643132 Ry

     total magnetization       =    13.87 Bohr mag/cell
     absolute magnetization    =    14.05 Bohr mag/cell

     iteration #  2     ecut=   170.00 Ry     beta=0.70
     Davidson diagonalization with overlap
     ethr =  4.15E-03,  avg # of iterations =  3.3

     negative rho (up, down):  0.000E+00 2.914E-04
 
     Magnetic moment per site:
     atom:    1    charge:   12.7244    magn:    3.8157    constr:    0.0000
     atom:    2    charge:   12.7244    magn:    3.8157    constr:    0.0000
     atom:    3    charge:   12.7244    magn:    3.8157    constr:    0.0000
     atom:    4    charge:   13.0651    magn:    3.5700    constr:    0.0000
     atom:    5    charge:    4.2254    magn:    0.0569    constr:    0.0000

     total cpu time spent up to now is       43.6 secs

     total energy              =   -1343.30404579 Ry
     Harris-Foulkes estimate   =   -1345.74726045 Ry
     estimated scf accuracy    <       8.48737307 Ry

     total magnetization       =     9.38 Bohr mag/cell
     absolute magnetization    =    10.50 Bohr mag/cell

     iteration #  3     ecut=   170.00 Ry     beta=0.70
     Davidson diagonalization with overlap
     ethr =  4.15E-03,  avg # of iterations =  3.5

     negative rho (up, down):  0.000E+00 2.221E-04
 
     Magnetic moment per site:
     atom:    1    charge:   12.8851    magn:    3.4471    constr:    0.0000
     atom:    2    charge:   12.8851    magn:    3.4471    constr:    0.0000
     atom:    3    charge:   12.8851    magn:    3.4471    constr:    0.0000
     atom:    4    charge:   12.8121    magn:    3.0181    constr:    0.0000
     atom:    5    charge:    4.0297    magn:    0.0240    constr:    0.0000

     total cpu time spent up to now is       62.0 secs

     total energy              =   -1343.62266473 Ry
     Harris-Foulkes estimate   =   -1346.19071189 Ry
     estimated scf accuracy    <      25.53648004 Ry

     total magnetization       =     3.80 Bohr mag/cell
     absolute magnetization    =     4.50 Bohr mag/cell

     iteration #  4     ecut=   170.00 Ry     beta=0.70
     Davidson diagonalization with overlap
     ethr =  4.15E-03,  avg # of iterations =  3.2

     negative rho (up, down):  0.000E+00 4.363E-04
 
     Magnetic moment per site:
     atom:    1    charge:   12.7744    magn:    2.2617    constr:    0.0000
     atom:    2    charge:   12.7744    magn:    2.2617    constr:    0.0000
     atom:    3    charge:   12.7744    magn:    2.2617    constr:    0.0000
     atom:    4    charge:   12.7285    magn:    1.8781    constr:    0.0000
     atom:    5    charge:    4.0534    magn:   -0.0487    constr:    0.0000

     total cpu time spent up to now is       79.9 secs

     total energy              =   -1345.02950053 Ry
     Harris-Foulkes estimate   =   -1345.10786297 Ry
     estimated scf accuracy    <       0.54936260 Ry

     total magnetization       =    10.75 Bohr mag/cell
     absolute magnetization    =    11.16 Bohr mag/cell

     iteration #  5     ecut=   170.00 Ry     beta=0.70
     Davidson diagonalization with overlap
     ethr =  7.96E-04,  avg # of iterations =  3.3

     negative rho (up, down):  0.000E+00 3.628E-04
 
     Magnetic moment per site:
     atom:    1    charge:   12.8333    magn:    2.1623    constr:    0.0000
     atom:    2    charge:   12.8333    magn:    2.1623    constr:    0.0000
     atom:    3    charge:   12.8333    magn:    2.1623    constr:    0.0000
     atom:    4    charge:   12.8041    magn:    2.0413    constr:    0.0000
     atom:    5    charge:    4.1101    magn:   -0.0268    constr:    0.0000

     total cpu time spent up to now is       98.7 secs

     total energy              =   -1345.11516045 Ry
     Harris-Foulkes estimate   =   -1345.20234001 Ry
     estimated scf accuracy    <       0.24060088 Ry

     total magnetization       =     9.59 Bohr mag/cell
     absolute magnetization    =     9.95 Bohr mag/cell

     iteration #  6     ecut=   170.00 Ry     beta=0.70
     Davidson diagonalization with overlap
     ethr =  3.49E-04,  avg # of iterations =  3.0

     negative rho (up, down):  0.000E+00 3.293E-04
 
     Magnetic moment per site:
     atom:    1    charge:   12.8271    magn:    2.1146    constr:    0.0000
     atom:    2    charge:   12.8271    magn:    2.1146    constr:    0.0000
     atom:    3    charge:   12.8271    magn:    2.1146    constr:    0.0000
     atom:    4    charge:   12.7931    magn:    2.3680    constr:    0.0000
     atom:    5    charge:    4.1120    magn:    0.0062    constr:    0.0000

     total cpu time spent up to now is      116.3 secs

     total energy              =   -1345.16189405 Ry
     Harris-Foulkes estimate   =   -1345.15764953 Ry
     estimated scf accuracy    <       0.02595673 Ry

     total magnetization       =     9.38 Bohr mag/cell
     absolute magnetization    =     9.72 Bohr mag/cell

     iteration #  7     ecut=   170.00 Ry     beta=0.70
     Davidson diagonalization with overlap
     ethr =  3.76E-05,  avg # of iterations =  1.7

     negative rho (up, down):  0.000E+00 3.448E-04
 
     Magnetic moment per site:
     atom:    1    charge:   12.8277    magn:    1.9569    constr:    0.0000
     atom:    2    charge:   12.8277    magn:    1.9569    constr:    0.0000
     atom:    3    charge:   12.8277    magn:    1.9569    constr:    0.0000
     atom:    4    charge:   12.7726    magn:    2.8107    constr:    0.0000
     atom:    5    charge:    4.1113    magn:    0.0392    constr:    0.0000

     total cpu time spent up to now is      130.3 secs

     total energy              =   -1345.16176549 Ry
     Harris-Foulkes estimate   =   -1345.16364858 Ry
     estimated scf accuracy    <       0.01805907 Ry

     total magnetization       =     9.38 Bohr mag/cell
     absolute magnetization    =     9.71 Bohr mag/cell

     iteration #  8     ecut=   170.00 Ry     beta=0.70
     Davidson diagonalization with overlap
     ethr =  2.62E-05,  avg # of iterations =  2.2

     negative rho (up, down):  0.000E+00 3.252E-04
 
     Magnetic moment per site:
     atom:    1    charge:   12.8309    magn:    1.8622    constr:    0.0000
     atom:    2    charge:   12.8309    magn:    1.8622    constr:    0.0000
     atom:    3    charge:   12.8309    magn:    1.8622    constr:    0.0000
     atom:    4    charge:   12.7752    magn:    2.7251    constr:    0.0000
     atom:    5    charge:    4.1092    magn:    0.0310    constr:    0.0000

     total cpu time spent up to now is      146.4 secs

     total energy              =   -1345.16681081 Ry
     Harris-Foulkes estimate   =   -1345.16583298 Ry
     estimated scf accuracy    <       0.00209145 Ry

     total magnetization       =     9.00 Bohr mag/cell
     absolute magnetization    =     9.35 Bohr mag/cell

     iteration #  9     ecut=   170.00 Ry     beta=0.70
     Davidson diagonalization with overlap
     ethr =  3.03E-06,  avg # of iterations =  2.1

     negative rho (up, down):  0.000E+00 3.704E-04
 
     Magnetic moment per site:
     atom:    1    charge:   12.8287    magn:    1.9945    constr:    0.0000
     atom:    2    charge:   12.8287    magn:    1.9945    constr:    0.0000
     atom:    3    charge:   12.8287    magn:    1.9945    constr:    0.0000
     atom:    4    charge:   12.7741    magn:    2.7577    constr:    0.0000
     atom:    5    charge:    4.1140    magn:    0.0387    constr:    0.0000

     total cpu time spent up to now is      161.3 secs

     total energy              =   -1345.16426890 Ry
     Harris-Foulkes estimate   =   -1345.16763410 Ry
     estimated scf accuracy    <       0.00202791 Ry

     total magnetization       =     8.59 Bohr mag/cell
     absolute magnetization    =     8.97 Bohr mag/cell

     iteration # 10     ecut=   170.00 Ry     beta=0.70
     Davidson diagonalization with overlap
     ethr =  2.94E-06,  avg # of iterations =  1.9

     negative rho (up, down):  0.000E+00 3.926E-04
 
     Magnetic moment per site:
     atom:    1    charge:   12.8273    magn:    2.0788    constr:    0.0000
     atom:    2    charge:   12.8273    magn:    2.0788    constr:    0.0000
     atom:    3    charge:   12.8273    magn:    2.0788    constr:    0.0000
     atom:    4    charge:   12.7751    magn:    2.7410    constr:    0.0000
     atom:    5    charge:    4.1175    magn:    0.0453    constr:    0.0000

     total cpu time spent up to now is      176.3 secs

     total energy              =   -1345.16404556 Ry
     Harris-Foulkes estimate   =   -1345.16570478 Ry
     estimated scf accuracy    <       0.00219935 Ry

     total magnetization       =     9.10 Bohr mag/cell
     absolute magnetization    =     9.44 Bohr mag/cell

     iteration # 11     ecut=   170.00 Ry     beta=0.70
     Davidson diagonalization with overlap
     ethr =  2.94E-06,  avg # of iterations =  1.7

     negative rho (up, down):  0.000E+00 2.453E-04
 
     Magnetic moment per site:
     atom:    1    charge:   12.8340    magn:    1.7236    constr:    0.0000
     atom:    2    charge:   12.8340    magn:    1.7236    constr:    0.0000
     atom:    3    charge:   12.8340    magn:    1.7236    constr:    0.0000
     atom:    4    charge:   12.7750    magn:    2.6962    constr:    0.0000
     atom:    5    charge:    4.1044    magn:    0.0141    constr:    0.0000

     total cpu time spent up to now is      191.0 secs

     total energy              =   -1345.16060738 Ry
     Harris-Foulkes estimate   =   -1345.16454115 Ry
     estimated scf accuracy    <       0.00284037 Ry

     total magnetization       =     9.33 Bohr mag/cell
     absolute magnetization    =     9.66 Bohr mag/cell

     iteration # 12     ecut=   170.00 Ry     beta=0.70
     Davidson diagonalization with overlap
     ethr =  2.94E-06,  avg # of iterations =  3.1

     negative rho (up, down):  0.000E+00 1.163E-04
 
     Magnetic moment per site:
     atom:    1    charge:   12.8415    magn:    1.3089    constr:    0.0000
     atom:    2    charge:   12.8415    magn:    1.3089    constr:    0.0000
     atom:    3    charge:   12.8415    magn:    1.3089    constr:    0.0000
     atom:    4    charge:   12.7742    magn:    2.6498    constr:    0.0000
     atom:    5    charge:    4.0879    magn:   -0.0235    constr:    0.0000

     total cpu time spent up to now is      209.2 secs

     total energy              =   -1345.16073430 Ry
     Harris-Foulkes estimate   =   -1345.16978224 Ry
     estimated scf accuracy    <       0.00122256 Ry

     total magnetization       =     8.20 Bohr mag/cell
     absolute magnetization    =     8.58 Bohr mag/cell

     iteration # 13     ecut=   170.00 Ry     beta=0.70
     Davidson diagonalization with overlap
     ethr =  1.77E-06,  avg # of iterations =  3.4

     negative rho (up, down):  0.000E+00 1.154E-04
 
     Magnetic moment per site:
     atom:    1    charge:   12.8437    magn:    1.2053    constr:    0.0000
     atom:    2    charge:   12.8437    magn:    1.2053    constr:    0.0000
     atom:    3    charge:   12.8437    magn:    1.2053    constr:    0.0000
     atom:    4    charge:   12.7742    magn:    2.6457    constr:    0.0000
     atom:    5    charge:    4.0835    magn:   -0.0337    constr:    0.0000

     total cpu time spent up to now is      230.9 secs

     total energy              =   -1345.16893843 Ry
     Harris-Foulkes estimate   =   -1345.17039745 Ry
     estimated scf accuracy    <       0.00061320 Ry

     total magnetization       =     7.21 Bohr mag/cell
     absolute magnetization    =     7.58 Bohr mag/cell

     iteration # 14     ecut=   170.00 Ry     beta=0.70
     Davidson diagonalization with overlap
     ethr =  8.89E-07,  avg # of iterations =  2.6

     negative rho (up, down):  0.000E+00 1.164E-04
 
     Magnetic moment per site:
     atom:    1    charge:   12.8426    magn:    1.2760    constr:    0.0000
     atom:    2    charge:   12.8426    magn:    1.2760    constr:    0.0000
     atom:    3    charge:   12.8426    magn:    1.2760    constr:    0.0000
     atom:    4    charge:   12.7742    magn:    2.6537    constr:    0.0000
     atom:    5    charge:    4.0853    magn:   -0.0288    constr:    0.0000

     total cpu time spent up to now is      247.5 secs

     total energy              =   -1345.16991714 Ry
     Harris-Foulkes estimate   =   -1345.16960256 Ry
     estimated scf accuracy    <       0.00135260 Ry

     total magnetization       =     6.96 Bohr mag/cell
     absolute magnetization    =     7.33 Bohr mag/cell

     iteration # 15     ecut=   170.00 Ry     beta=0.70
     Davidson diagonalization with overlap
     ethr =  8.89E-07,  avg # of iterations =  2.0

     negative rho (up, down):  0.000E+00 1.167E-04
 
     Magnetic moment per site:
     atom:    1    charge:   12.8432    magn:    1.2640    constr:    0.0000
     atom:    2    charge:   12.8432    magn:    1.2640    constr:    0.0000
     atom:    3    charge:   12.8432    magn:    1.2640    constr:    0.0000
     atom:    4    charge:   12.7748    magn:    2.6621    constr:    0.0000
     atom:    5    charge:    4.0841    magn:   -0.0336    constr:    0.0000

     total cpu time spent up to now is      262.8 secs

     total energy              =   -1345.17022978 Ry
     Harris-Foulkes estimate   =   -1345.17023369 Ry
     estimated scf accuracy    <       0.00083694 Ry

     total magnetization       =     7.13 Bohr mag/cell
     absolute magnetization    =     7.50 Bohr mag/cell

     iteration # 16     ecut=   170.00 Ry     beta=0.70
     Davidson diagonalization with overlap
     ethr =  8.89E-07,  avg # of iterations =  1.0

     negative rho (up, down):  0.000E+00 1.563E-04
 
     Magnetic moment per site:
     atom:    1    charge:   12.8390    magn:    1.4861    constr:    0.0000
     atom:    2    charge:   12.8390    magn:    1.4861    constr:    0.0000
     atom:    3    charge:   12.8390    magn:    1.4861    constr:    0.0000
     atom:    4    charge:   12.7744    magn:    2.6929    constr:    0.0000
     atom:    5    charge:    4.0900    magn:   -0.0211    constr:    0.0000

     total cpu time spent up to now is      276.5 secs

     total energy              =   -1345.16766020 Ry
     Harris-Foulkes estimate   =   -1345.17024955 Ry
     estimated scf accuracy    <       0.00093912 Ry

     total magnetization       =     7.12 Bohr mag/cell
     absolute magnetization    =     7.48 Bohr mag/cell

     iteration # 17     ecut=   170.00 Ry     beta=0.70
     Davidson diagonalization with overlap
     ethr =  8.89E-07,  avg # of iterations =  3.1

     negative rho (up, down):  0.000E+00 1.582E-04
 
     Magnetic moment per site:
     atom:    1    charge:   12.8386    magn:    1.5002    constr:    0.0000
     atom:    2    charge:   12.8386    magn:    1.5002    constr:    0.0000
     atom:    3    charge:   12.8386    magn:    1.5002    constr:    0.0000
     atom:    4    charge:   12.7743    magn:    2.6883    constr:    0.0000
     atom:    5    charge:    4.0910    magn:   -0.0184    constr:    0.0000

     total cpu time spent up to now is      296.7 secs

     total energy              =   -1345.17085519 Ry
     Harris-Foulkes estimate   =   -1345.17088822 Ry
     estimated scf accuracy    <       0.00114656 Ry

     total magnetization       =     7.71 Bohr mag/cell
     absolute magnetization    =     8.06 Bohr mag/cell

     iteration # 18     ecut=   170.00 Ry     beta=0.70
     Davidson diagonalization with overlap
     ethr =  8.89E-07,  avg # of iterations =  1.0

     negative rho (up, down):  0.000E+00 1.591E-04
 
     Magnetic moment per site:
     atom:    1    charge:   12.8366    magn:    1.5391    constr:    0.0000
     atom:    2    charge:   12.8366    magn:    1.5391    constr:    0.0000
     atom:    3    charge:   12.8366    magn:    1.5391    constr:    0.0000
     atom:    4    charge:   12.7739    magn:    2.6672    constr:    0.0000
     atom:    5    charge:    4.0953    magn:   -0.0054    constr:    0.0000

     total cpu time spent up to now is      311.1 secs

     total energy              =   -1345.17070400 Ry
     Harris-Foulkes estimate   =   -1345.17087014 Ry
     estimated scf accuracy    <       0.00084229 Ry

     total magnetization       =     7.74 Bohr mag/cell
     absolute magnetization    =     8.09 Bohr mag/cell

     iteration # 19     ecut=   170.00 Ry     beta=0.70
     Davidson diagonalization with overlap
     ethr =  8.89E-07,  avg # of iterations =  2.0

     negative rho (up, down):  0.000E+00 1.577E-04
 
     Magnetic moment per site:
     atom:    1    charge:   12.8367    magn:    1.5368    constr:    0.0000
     atom:    2    charge:   12.8367    magn:    1.5368    constr:    0.0000
     atom:    3    charge:   12.8367    magn:    1.5368    constr:    0.0000
     atom:    4    charge:   12.7739    magn:    2.6680    constr:    0.0000
     atom:    5    charge:    4.0952    magn:   -0.0056    constr:    0.0000

     total cpu time spent up to now is      326.2 secs

     total energy              =   -1345.17086524 Ry
     Harris-Foulkes estimate   =   -1345.17085843 Ry
     estimated scf accuracy    <       0.00012028 Ry

     total magnetization       =     7.82 Bohr mag/cell
     absolute magnetization    =     8.17 Bohr mag/cell

     iteration # 20     ecut=   170.00 Ry     beta=0.70
     Davidson diagonalization with overlap
     ethr =  1.74E-07,  avg # of iterations =  1.0

     negative rho (up, down):  0.000E+00 1.383E-04
 
     Magnetic moment per site:
     atom:    1    charge:   12.8370    magn:    1.4833    constr:    0.0000
     atom:    2    charge:   12.8370    magn:    1.4833    constr:    0.0000
     atom:    3    charge:   12.8370    magn:    1.4833    constr:    0.0000
     atom:    4    charge:   12.7735    magn:    2.6522    constr:    0.0000
     atom:    5    charge:    4.0948    magn:   -0.0035    constr:    0.0000

     total cpu time spent up to now is      340.3 secs

     total energy              =   -1345.17073968 Ry
     Harris-Foulkes estimate   =   -1345.17086718 Ry
     estimated scf accuracy    <       0.00012671 Ry

     total magnetization       =     7.81 Bohr mag/cell
     absolute magnetization    =     8.16 Bohr mag/cell

     iteration # 21     ecut=   170.00 Ry     beta=0.70
     Davidson diagonalization with overlap
     ethr =  1.74E-07,  avg # of iterations =  2.9

     negative rho (up, down):  0.000E+00 1.388E-04
 
     Magnetic moment per site:
     atom:    1    charge:   12.8371    magn:    1.4844    constr:    0.0000
     atom:    2    charge:   12.8371    magn:    1.4844    constr:    0.0000
     atom:    3    charge:   12.8371    magn:    1.4844    constr:    0.0000
     atom:    4    charge:   12.7736    magn:    2.6527    constr:    0.0000
     atom:    5    charge:    4.0948    magn:   -0.0037    constr:    0.0000

     total cpu time spent up to now is      358.0 secs

     total energy              =   -1345.17094502 Ry
     Harris-Foulkes estimate   =   -1345.17094457 Ry
     estimated scf accuracy    <       0.00000670 Ry

     total magnetization       =     7.67 Bohr mag/cell
     absolute magnetization    =     8.02 Bohr mag/cell

     iteration # 22     ecut=   170.00 Ry     beta=0.70
     Davidson diagonalization with overlap
     ethr =  9.71E-09,  avg # of iterations =  1.9

     negative rho (up, down):  0.000E+00 1.398E-04
 
     Magnetic moment per site:
     atom:    1    charge:   12.8374    magn:    1.4858    constr:    0.0000
     atom:    2    charge:   12.8374    magn:    1.4858    constr:    0.0000
     atom:    3    charge:   12.8374    magn:    1.4858    constr:    0.0000
     atom:    4    charge:   12.7739    magn:    2.6548    constr:    0.0000
     atom:    5    charge:    4.0946    magn:   -0.0045    constr:    0.0000

     total cpu time spent up to now is      373.2 secs

     total energy              =   -1345.17094488 Ry
     Harris-Foulkes estimate   =   -1345.17094541 Ry
     estimated scf accuracy    <       0.00000394 Ry

     total magnetization       =     7.67 Bohr mag/cell
     absolute magnetization    =     8.02 Bohr mag/cell

     iteration # 23     ecut=   170.00 Ry     beta=0.70
     Davidson diagonalization with overlap
     ethr =  5.71E-09,  avg # of iterations =  2.3

     negative rho (up, down):  0.000E+00 1.402E-04
 
     Magnetic moment per site:
     atom:    1    charge:   12.8373    magn:    1.4874    constr:    0.0000
     atom:    2    charge:   12.8373    magn:    1.4874    constr:    0.0000
     atom:    3    charge:   12.8373    magn:    1.4874    constr:    0.0000
     atom:    4    charge:   12.7738    magn:    2.6538    constr:    0.0000
     atom:    5    charge:    4.0948    magn:   -0.0038    constr:    0.0000

     total cpu time spent up to now is      389.1 secs

     total energy              =   -1345.17094594 Ry
     Harris-Foulkes estimate   =   -1345.17094625 Ry
     estimated scf accuracy    <       0.00000175 Ry

     total magnetization       =     7.68 Bohr mag/cell
     absolute magnetization    =     8.03 Bohr mag/cell

     iteration # 24     ecut=   170.00 Ry     beta=0.70
     Davidson diagonalization with overlap
     ethr =  2.54E-09,  avg # of iterations =  1.7

     negative rho (up, down):  0.000E+00 1.400E-04
 
     Magnetic moment per site:
     atom:    1    charge:   12.8373    magn:    1.4871    constr:    0.0000
     atom:    2    charge:   12.8373    magn:    1.4871    constr:    0.0000
     atom:    3    charge:   12.8373    magn:    1.4871    constr:    0.0000
     atom:    4    charge:   12.7738    magn:    2.6539    constr:    0.0000
     atom:    5    charge:    4.0948    magn:   -0.0038    constr:    0.0000

     total cpu time spent up to now is      404.2 secs

     total energy              =   -1345.17094629 Ry
     Harris-Foulkes estimate   =   -1345.17094629 Ry
     estimated scf accuracy    <       0.00000004 Ry

     total magnetization       =     7.68 Bohr mag/cell
     absolute magnetization    =     8.03 Bohr mag/cell

     iteration # 25     ecut=   170.00 Ry     beta=0.70
     Davidson diagonalization with overlap
     ethr =  5.20E-11,  avg # of iterations =  3.1

     negative rho (up, down):  0.000E+00 1.402E-04
 
     Magnetic moment per site:
     atom:    1    charge:   12.8373    magn:    1.4877    constr:    0.0000
     atom:    2    charge:   12.8373    magn:    1.4877    constr:    0.0000
     atom:    3    charge:   12.8373    magn:    1.4877    constr:    0.0000
     atom:    4    charge:   12.7738    magn:    2.6538    constr:    0.0000
     atom:    5    charge:    4.0948    magn:   -0.0036    constr:    0.0000

     total cpu time spent up to now is      422.3 secs

     total energy              =   -1345.17094628 Ry
     Harris-Foulkes estimate   =   -1345.17094631 Ry
     estimated scf accuracy    <       0.00000015 Ry

     total magnetization       =     7.68 Bohr mag/cell
     absolute magnetization    =     8.03 Bohr mag/cell

     iteration # 26     ecut=   170.00 Ry     beta=0.70
     Davidson diagonalization with overlap
     ethr =  5.20E-11,  avg # of iterations =  2.6

     negative rho (up, down):  0.000E+00 1.402E-04
 
     Magnetic moment per site:
     atom:    1    charge:   12.8373    magn:    1.4878    constr:    0.0000
     atom:    2    charge:   12.8373    magn:    1.4878    constr:    0.0000
     atom:    3    charge:   12.8373    magn:    1.4878    constr:    0.0000
     atom:    4    charge:   12.7738    magn:    2.6537    constr:    0.0000
     atom:    5    charge:    4.0948    magn:   -0.0036    constr:    0.0000

     total cpu time spent up to now is      440.3 secs

     End of self-consistent calculation

 ------ SPIN UP ------------


          k = 0.0000 0.0000 0.0000 ( 12533 PWs)   bands (ev):

   -69.9377 -69.2603 -69.2059 -69.2059 -35.9986 -35.9986 -35.9986 -35.6165
   -35.6165 -35.6165 -35.1593 -35.1593 -35.1593 -35.1527 -35.1527 -35.1527
     0.3456  11.4280  13.3304  13.3304  13.3304  13.8394  13.8394  14.1048
    14.1048  14.1048  16.0920  16.0920  16.0920  17.1981  17.1981  17.8459
    17.8459  18.3980  18.3980  18.3980  18.4657  18.4657  18.4657  18.4672
    21.8872  23.7553

          k = 0.0000 0.0000 0.1111 ( 12537 PWs)   bands (ev):

   -69.9376 -69.2589 -69.2074 -69.2059 -35.9976 -35.9976 -35.9972 -35.6153
   -35.6153 -35.6142 -35.1603 -35.1603 -35.1596 -35.1575 -35.1539 -35.1539
     0.4153  11.4854  12.9272  13.1104  13.1104  13.9188  13.9304  14.1571
    14.3439  14.3439  16.0275  16.1460  16.1460  17.2212  17.2570  17.8144
    17.8700  18.3137  18.3137  18.3979  18.3979  18.3981  18.4061  18.4646
    21.9633  23.2362

          k = 0.0000 0.0000 0.2222 ( 12549 PWs)   bands (ev):

   -69.9373 -69.2550 -69.2116 -69.2059 -35.9951 -35.9951 -35.9938 -35.6123
   -35.6123 -35.6083 -35.1701 -35.1632 -35.1632 -35.1603 -35.1567 -35.1567
     0.6003  11.3378  12.5042  12.7672  12.7672  14.0810  14.1352  14.3088
    14.7507  14.7507  15.8447  16.2720  16.2720  17.1941  17.2855  17.7242
    17.7685  17.9541  17.9541  18.2391  18.3985  18.4013  18.4013  18.4618
    22.1772  22.5168

          k = 0.0000 0.0000 0.3333 ( 12553 PWs)   bands (ev):

   -69.9370 -69.2493 -69.2176 -69.2059 -35.9922 -35.9922 -35.9899 -35.6088
   -35.6088 -35.6008 -35.1850 -35.1669 -35.1669 -35.1611 -35.1596 -35.1596
     0.8281  10.6696  12.4973  12.4973  12.8459  14.1975  14.4172  14.5420
    15.1425  15.1425  15.5759  16.3645  16.3645  16.9835  17.3211  17.3613
    17.5813  17.5813  17.6124  18.0169  18.3989  18.4143  18.4143  18.4590
    22.0440  22.5714

          k = 0.0000 0.0000 0.4444 ( 12544 PWs)   bands (ev):

   -69.9368 -69.2440 -69.2231 -69.2059 -35.9904 -35.9904 -35.9874 -35.6064
   -35.6064 -35.5955 -35.1952 -35.1695 -35.1695 -35.1617 -35.1613 -35.1613
     0.9889  10.1828  12.3530  12.3530  13.4005  14.1246  14.6316  14.8076
    15.2872  15.4346  15.4346  16.3334  16.3334  16.7319  16.9436  17.3459
    17.3741  17.3741  17.6398  17.8042  18.3992  18.4296  18.4296  18.4573
    21.9107  22.7892

          k = 0.0000 0.1111 0.1111 ( 12557 PWs)   bands (ev):

   -69.9375 -69.2576 -69.2081 -69.2067 -35.9980 -35.9967 -35.9950 -35.6264
   -35.6141 -35.5999 -35.1706 -35.1613 -35.1609 -35.1576 -35.1551 -35.1488
     0.4850  11.5393  12.6986  12.8568  12.9537  13.9960  14.0038  14.2122
    14.4869  14.5134  16.0038  16.1626  16.1925  17.2486  17.2726  17.7258
    17.7831  18.2259  18.2638  18.3177  18.3241  18.4100  18.4787  18.5423
    22.0239  23.4380

          k = 0.0000 0.1111 0.2222 ( 12548 PWs)   bands (ev):

   -69.9372 -69.2537 -69.2119 -69.2070 -35.9964 -35.9942 -35.9917 -35.6339
   -35.6109 -35.5840 -35.1860 -35.1658 -35.1640 -35.1587 -35.1582 -35.1445
     0.6703  11.3589  12.2604  12.6630  12.6764  14.1571  14.2066  14.3622
    14.8142  14.8588  15.8416  16.2812  16.2888  17.1596  17.3233  17.4379
    17.5841  17.9113  18.1397  18.1981  18.2417  18.3837  18.5580  18.6821
    22.2025  22.6700

          k = 0.0000 0.1111 0.3333 ( 12541 PWs)   bands (ev):

   -69.9369 -69.2481 -69.2177 -69.2070 -35.9936 -35.9915 -35.9891 -35.6377
   -35.6072 -35.5700 -35.2012 -35.1708 -35.1676 -35.1612 -35.1607 -35.1422
     0.8987  10.6614  12.1384  12.4160  12.9458  14.2825  14.4858  14.5912
    15.1749  15.2144  15.5802  16.2916  16.3934  16.9293  17.0975  17.2656
    17.4902  17.5574  17.8563  18.0732  18.1794  18.3773  18.6297  18.6757
    22.2615  22.4503

          k = 0.0000 0.1111 0.4444 ( 12514 PWs)   bands (ev):

   -69.9368 -69.2428 -69.2231 -69.2070 -35.9911 -35.9896 -35.9881 -35.6390
   -35.6048 -35.5616 -35.2109 -35.1740 -35.1702 -35.1629 -35.1621 -35.1414
     1.0599  10.1713  12.0376  12.2806  13.4692  14.2192  14.7010  14.8574
    15.2906  15.4586  15.4813  16.1376  16.3912  16.6629  16.8638  17.2554
    17.3554  17.4654  17.7078  17.8993  18.1432  18.3752  18.6537  18.6757
    22.1429  22.6122

          k = 0.0000 0.2222 0.2222 ( 12528 PWs)   bands (ev):

   -69.9370 -69.2501 -69.2136 -69.2090 -35.9967 -35.9920 -35.9896 -35.6525
   -35.6074 -35.5585 -35.2073 -35.1684 -35.1663 -35.1617 -35.1605 -35.1309
     0.8566  11.2947  11.5675  12.4408  12.7895  14.3575  14.3836  14.5049
    15.0141  15.1101  15.7597  16.2749  16.3627  17.0224  17.0276  17.3103
    17.4584  17.7424  18.0342  18.0882  18.2577  18.3349  18.7084  18.9942
    22.1159  22.9984

          k = 0.0000 0.2222 0.3333 ( 12527 PWs)   bands (ev):

   -69.9368 -69.2448 -69.2181 -69.2099 -35.9953 -35.9895 -35.9889 -35.6649
   -35.6033 -35.5378 -35.2253 -35.1712 -35.1696 -35.1653 -35.1627 -35.1218
     1.0865  10.6284  11.3677  12.2332  13.1802  14.5163  14.6612  14.7162
    15.2786  15.3904  15.5580  16.0662  16.4959  16.7576  16.8083  17.1020
    17.4755  17.6356  17.8027  17.9577  18.1967  18.3520  18.8357  19.0291
    21.9455  22.8234

          k = 0.0000 0.2222 0.4444 ( 12515 PWs)   bands (ev):

   -69.9366 -69.2396 -69.2232 -69.2102 -35.9929 -35.9899 -35.9878 -35.6710
   -35.6005 -35.5260 -35.2358 -35.1731 -35.1721 -35.1672 -35.1643 -35.1174
     1.2492  10.1368  11.3031  12.1145  13.6798  14.4691  14.8909  14.9678
    15.2993  15.4956  15.5994  15.8226  16.5517  16.5535  16.6111  17.0966
    17.2978  17.5286  17.8747  17.8797  18.1776  18.2114  18.9124  18.9629
    21.9126  22.7456

          k = 0.0000 0.3333 0.3333 ( 12518 PWs)   bands (ev):

   -69.9366 -69.2398 -69.2198 -69.2134 -35.9957 -35.9902 -35.9872 -35.6844
   -35.5987 -35.5125 -35.2449 -35.1720 -35.1712 -35.1698 -35.1653 -35.1070
     1.3189  10.5582  10.5959  12.0537  13.5741  14.8384  14.8435  14.8882
    15.4138  15.4602  15.5949  15.7406  16.5550  16.6480  16.6578  16.8988
    17.3282  17.6091  17.7581  17.9053  18.0436  18.5478  19.0042  19.1744
    21.2660  23.3555

          k = 0.0000 0.3333 0.4444 ( 12517 PWs)   bands (ev):

   -69.9365 -69.2348 -69.2233 -69.2149 -35.9946 -35.9924 -35.9857 -35.6944
   -35.5956 -35.4984 -35.2558 -35.1743 -35.1722 -35.1712 -35.1670 -35.0993
     1.4839  10.0900  10.5351  11.9484  14.0223  14.7992  15.0850  15.1283
    15.2953  15.5098  15.5583  15.7464  16.4015  16.4739  16.7778  16.8317
    17.2032  17.3997  17.6207  17.9740  18.1738  18.5809  19.1029  19.1297
    20.9078  23.4487

          k = 0.0000 0.4444 0.4444 ( 12492 PWs)   bands (ev):

   -69.9364 -69.2292 -69.2238 -69.2201 -35.9953 -35.9944 -35.9843 -35.7067
   -35.5923 -35.4832 -35.2667 -35.1758 -35.1755 -35.1698 -35.1689 -35.0898
     1.6508  10.0557  10.0562  11.8496  14.3681  15.0248  15.1859  15.2539
    15.2590  15.4091  15.5746  15.8590  16.3138  16.3955  16.5771  16.9870
    17.1138  17.2346  17.4095  17.8576  18.3840  18.9442  19.1749  19.2130
    20.1304  23.9982

          k = 0.1111 0.1111 0.1111 ( 12563 PWs)   bands (ev):

   -69.9374 -69.2562 -69.2081 -69.2081 -35.9973 -35.9973 -35.9927 -35.6385
   -35.5988 -35.5988 -35.1736 -35.1699 -35.1699 -35.1509 -35.1490 -35.1490
     0.5549  11.5893  12.5637  12.5637  12.8355  14.0718  14.0718  14.3895
    14.3895  14.7340  15.9885  16.2022  16.2022  17.2667  17.2667  17.6642
    17.6642  17.9911  18.1231  18.3441  18.3441  18.4196  18.6408  18.6408
    22.0741  23.5626

          k = 0.1111 0.1111 0.2222 ( 12529 PWs)   bands (ev):

   -69.9372 -69.2525 -69.2121 -69.2081 -35.9962 -35.9955 -35.9895 -35.6507
   -35.5959 -35.5784 -35.1902 -35.1803 -35.1716 -35.1512 -35.1461 -35.1439
     0.7405  11.3710  12.1431  12.2978  12.7587  14.2324  14.2776  14.4624
    14.7620  15.0132  15.8441  16.2847  16.2952  17.1761  17.2940  17.3839
    17.4079  17.7634  17.9268  18.2174  18.3452  18.3561  18.8018  18.8326
    22.2207  22.8348

          k = 0.1111 0.1111 0.3333 ( 12526 PWs)   bands (ev):

   -69.9369 -69.2470 -69.2178 -69.2080 -35.9935 -35.9934 -35.9875 -35.6582
   -35.5925 -35.5610 -35.2065 -35.1890 -35.1727 -35.1529 -35.1468 -35.1398
     0.9695  10.6461  12.0640  12.0768  13.0382  14.3637  14.5548  14.6648
    15.1710  15.2803  15.5907  16.2780  16.3443  16.9169  17.0707  17.1115
    17.4309  17.6063  17.7040  18.0896  18.2500  18.3340  18.6809  18.9923
    22.4188  22.4433

          k = 0.1111 0.1111 0.4444 ( 12521 PWs)   bands (ev):

   -69.9367 -69.2418 -69.2231 -69.2080 -35.9921 -35.9902 -35.9878 -35.6616
   -35.5903 -35.5508 -35.2165 -35.1939 -35.1733 -35.1540 -35.1484 -35.1378
     1.1313  10.1542  11.9340  12.0077  13.5364  14.3073  14.7710  14.9230
    15.3009  15.4548  15.5303  16.0757  16.2782  16.6260  16.9673  17.0969
    17.3339  17.4990  17.7091  17.9300  18.1841  18.3237  18.5237  19.0838
    22.3367  22.5622

          k = 0.1111 0.2222 0.2222 ( 12537 PWs)   bands (ev):

   -69.9370 -69.2490 -69.2136 -69.2102 -35.9967 -35.9945 -35.9871 -35.6709
   -35.5867 -35.5576 -35.2083 -35.1853 -35.1819 -35.1467 -35.1458 -35.1311
     0.9273  11.2970  11.4890  12.0698  12.8955  14.4280  14.4565  14.6311
    14.9389  15.2087  15.7702  16.2697  16.3401  17.0316  17.0916  17.2142
    17.3956  17.5441  17.7220  18.2479  18.2497  18.3215  19.0775  19.1104
    22.1894  23.1064

          k = 0.1111 0.2222 0.3333 ( 12525 PWs)   bands (ev):

   -69.9367 -69.2438 -69.2182 -69.2109 -35.9956 -35.9931 -35.9864 -35.6851
   -35.5822 -35.5362 -35.2256 -35.1940 -35.1840 -35.1477 -35.1445 -35.1219
     1.1581  10.5980  11.3112  11.9147  13.2656  14.5774  14.7280  14.8335
    15.2637  15.3764  15.5837  16.1023  16.3720  16.7651  16.9124  17.0314
    17.4419  17.4780  17.6144  18.1518  18.1974  18.2543  18.9965  19.3336
    22.0568  22.8860

          k = 0.1111 0.2222 0.4444 ( 12540 PWs)   bands (ev):

   -69.9366 -69.2388 -69.2232 -69.2110 -35.9940 -35.9918 -35.9873 -35.6923
   -35.5797 -35.5238 -35.2357 -35.1996 -35.1844 -35.1484 -35.1445 -35.1173
     1.3215  10.1073  11.2411  11.8216  13.7357  14.5291  14.9595  15.0709
    15.3033  15.4784  15.6037  15.8648  16.2989  16.5434  16.8769  16.9674
    17.3023  17.4480  17.7962  18.0500  18.1008  18.2332  18.7427  19.4751
    22.0151  22.8356

          k = 0.1111 0.3333 0.3333 ( 12528 PWs)   bands (ev):

   -69.9366 -69.2391 -69.2198 -69.2141 -35.9964 -35.9931 -35.9865 -35.7053
   -35.5768 -35.5120 -35.2439 -35.1955 -35.1927 -35.1458 -35.1444 -35.1071
     1.3917  10.5242  10.5392  11.7567  13.6360  14.8224  14.9038  15.0686
    15.3296  15.4720  15.5695  15.9048  16.3665  16.6360  16.7526  16.9584
    17.3277  17.3351  17.7952  18.0111  18.1086  18.3394  19.2233  19.4678
    21.3616  23.2563

          k = 0.1111 0.3333 0.4444 ( 12508 PWs)   bands (ev):

   -69.9364 -69.2342 -69.2233 -69.2155 -35.9958 -35.9940 -35.9869 -35.7159
   -35.5738 -35.4980 -35.2541 -35.1998 -35.1939 -35.1456 -35.1444 -35.0994
     1.5578  10.0487  10.4832  11.6623  14.0409  14.7949  15.0910  15.2863
    15.2943  15.5093  15.5622  15.9173  16.2895  16.4460  16.7281  16.9208
    17.2026  17.3107  17.8564  17.9764  18.0302  18.4888  19.0168  19.6592
    20.9538  23.3824

          k = 0.1111 0.4444 0.4444 ( 12499 PWs)   bands (ev):

   -69.9363 -69.2289 -69.2238 -69.2203 -35.9965 -35.9958 -35.9867 -35.7285
   -35.5706 -35.4832 -35.2643 -35.1997 -35.1992 -35.1446 -35.1444 -35.0898
     1.7260  10.0074  10.0093  11.5674  14.3231  14.9816  15.0453  15.2045
    15.5460  15.5519  15.6299  16.0534  16.2557  16.3616  16.5046  16.9236
    17.1740  17.2215  17.6744  17.9343  18.0854  18.8777  19.1702  19.7000
    20.1196  23.7363

          k = 0.2222 0.2222 0.2222 ( 12524 PWs)   bands (ev):

   -69.9368 -69.2458 -69.2135 -69.2135 -35.9966 -35.9966 -35.9854 -35.6966
   -35.5553 -35.5553 -35.2159 -35.1985 -35.1985 -35.1336 -35.1336 -35.1296
     1.1157  11.2708  11.3111  11.3111  13.1132  14.6223  14.6223  14.9419
    14.9419  15.3039  15.7316  16.2793  16.2793  16.9691  16.9691  17.2822
    17.2822  17.2921  17.4269  18.2283  18.2283  18.3815  19.4145  19.4145
    22.2834  23.0621

          k = 0.2222 0.2222 0.3333 ( 12517 PWs)   bands (ev):

   -69.9366 -69.2410 -69.2184 -69.2135 -35.9965 -35.9965 -35.9860 -35.7157
   -35.5526 -35.5292 -35.2299 -35.2115 -35.2012 -35.1336 -35.1258 -35.1200
     1.3491  10.5168  11.1353  11.2354  13.4787  14.7337  14.8919  15.1005
    15.2917  15.2955  15.6688  16.1478  16.2339  16.7241  16.7860  17.1815
    17.1844  17.3772  17.5204  18.1614  18.2196  18.3161  19.2416  19.7639
    22.2486  22.6936

          k = 0.2222 0.2222 0.4444 ( 12513 PWs)   bands (ev):

   -69.9365 -69.2362 -69.2233 -69.2135 -35.9965 -35.9948 -35.9882 -35.7257
   -35.5508 -35.5146 -35.2389 -35.2186 -35.2015 -35.1342 -35.1225 -35.1146
     1.5149  10.0324  11.0316  11.1935  13.8846  14.6645  15.1473  15.1479
    15.4030  15.4925  15.6116  15.9865  16.1834  16.4974  16.7712  17.0062
    17.1467  17.5599  17.7231  18.0964  18.1963  18.2421  18.8106  20.0142
    22.2601  22.3755

          k = 0.2222 0.3333 0.3333 ( 12520 PWs)   bands (ev):

   -69.9365 -69.2369 -69.2197 -69.2164 -35.9982 -35.9974 -35.9879 -35.7396
   -35.5400 -35.5108 -35.2418 -35.2167 -35.2133 -35.1248 -35.1233 -35.1072
     1.5865  10.4047  10.4371  11.0621  13.7832  14.8927  14.9972  15.1535
    15.4037  15.4571  15.8015  16.1023  16.2130  16.6136  16.6341  16.9615
    17.3038  17.3489  17.6459  18.1527  18.2321  18.2818  19.4024  19.9182
    21.6312  22.6891

          k = 0.2222 0.3333 0.4444 ( 12507 PWs)   bands (ev):

   -69.9364 -69.2325 -69.2233 -69.2172 -35.9986 -35.9975 -35.9904 -35.7523
   -35.5367 -35.4966 -35.2502 -35.2226 -35.2146 -35.1243 -35.1194 -35.0994
     1.7557   9.9478  10.3577  10.9827  14.0722  14.8048  15.0271  15.2236
    15.4900  15.7147  15.8750  16.1616  16.1874  16.4232  16.6200  16.8034
    17.2858  17.5120  17.7753  18.1061  18.1693  18.3880  19.0264  20.2481
    21.0538  22.6439

          k = 0.2222 0.4444 0.4444 ( 12518 PWs)   bands (ev):

   -69.9363 -69.2281 -69.2238 -69.2211 -35.9995 -35.9992 -35.9925 -35.7667
   -35.5323 -35.4830 -35.2584 -35.2223 -35.2217 -35.1195 -35.1192 -35.0897
     1.9280   9.8897   9.8970  10.8923  14.2094  14.8978  14.9496  15.0890
    15.6723  16.0014  16.1136  16.2019  16.2632  16.3987  16.5119  16.6591
    17.4067  17.4415  17.8213  17.9826  18.1010  18.7643  19.1468  19.9407
    20.4395  22.9020

          k = 0.3333 0.3333 0.3333 ( 12505 PWs)   bands (ev):

   -69.9364 -69.2335 -69.2197 -69.2197 -36.0003 -36.0003 -35.9915 -35.7673
   -35.5094 -35.5094 -35.2429 -35.2285 -35.2285 -35.1097 -35.1097 -35.1052
     1.8295  10.2647  10.2647  10.4018  13.9569  14.9419  14.9944  14.9944
    15.6693  15.6693  16.1352  16.2176  16.2176  16.5751  16.5751  16.7363
    17.4733  17.5584  17.5584  18.2037  18.2037  18.3420  19.7536  19.7536
    21.9450  21.9450

          k = 0.3333 0.3333 0.4444 ( 12520 PWs)   bands (ev):

   -69.9363 -69.2299 -69.2234 -69.2197 -36.0017 -36.0009 -35.9952 -35.7823
   -35.5085 -35.4925 -35.2479 -35.2366 -35.2299 -35.1086 -35.1019 -35.0980
     2.0036   9.8386  10.1794  10.3014  14.0867  14.8129  14.9323  15.0658
    15.7098  15.9686  16.2181  16.2967  16.3760  16.5444  16.5847  16.7064
    17.4818  17.6853  17.7211  18.2221  18.2876  18.3193  19.0862  20.2691
    21.0591  21.9460

          k = 0.3333 0.4444 0.4444 ( 12510 PWs)   bands (ev):

   -69.9363 -69.2269 -69.2237 -69.2223 -36.0030 -36.0029 -35.9992 -35.7987
   -35.5002 -35.4827 -35.2518 -35.2384 -35.2377 -35.1004 -35.1000 -35.0897
     2.1818   9.7650   9.7772  10.1656  14.0869  14.8236  14.8779  14.9432
    15.8648  16.0631  16.2508  16.2627  16.4462  16.8097  16.8157  16.9889
    17.6309  17.6604  17.7494  18.2076  18.2600  18.5485  19.0738  19.6183
    20.9367  21.9306

          k = 0.4444 0.4444 0.4444 ( 12559 PWs)   bands (ev):

   -69.9362 -69.2254 -69.2237 -69.2237 -36.0051 -36.0051 -36.0038 -35.8163
   -35.4826 -35.4826 -35.2483 -35.2461 -35.2461 -35.0901 -35.0901 -35.0893
     2.3652   9.6881   9.6881   9.7164  14.0120  14.7928  14.8333  14.8333
    16.0115  16.0115  16.2626  16.2626  16.3291  17.4463  17.4463  17.4746
    17.7439  17.7439  17.9039  18.3143  18.3143  18.3170  18.9395  18.9395
    21.2439  21.2439

 ------ SPIN DOWN ----------


          k = 0.0000 0.0000 0.0000 ( 12533 PWs)   bands (ev):

   -67.3632 -67.3024 -67.3024 -66.5338 -33.9863 -33.9863 -33.9863 -33.2304
   -33.2304 -33.2304 -33.1917 -33.1917 -33.1917 -32.6392 -32.6392 -32.6392
     0.4464  11.7276  13.3948  13.3948  13.3948  15.2107  15.2107  15.5337
    15.5337  15.5337  18.0412  18.0412  18.0412  18.7048  18.7048  20.2819
    20.2819  20.2819  20.4082  20.4082  20.5094  20.8706  20.8706  20.8706
    23.0636  23.9612

          k = 0.0000 0.0000 0.1111 ( 12537 PWs)   bands (ev):

   -67.3615 -67.3040 -67.3024 -66.5338 -33.9851 -33.9851 -33.9846 -33.2308
   -33.2294 -33.2294 -33.1928 -33.1928 -33.1920 -32.6421 -32.6404 -32.6404
     0.5153  11.7586  13.0944  13.2813  13.2813  15.2705  15.3100  15.5908
    15.6868  15.6868  17.9634  18.1036  18.1036  18.7113  18.8015  20.2362
    20.2362  20.2821  20.3477  20.3645  20.4465  20.6202  20.6202  20.8707
    23.1049  23.6077

          k = 0.0000 0.0000 0.2222 ( 12549 PWs)   bands (ev):

   -67.3568 -67.3086 -67.3024 -66.5340 -33.9819 -33.9819 -33.9801 -33.2317
   -33.2268 -33.2268 -33.1956 -33.1956 -33.1929 -32.6495 -32.6435 -32.6435
     0.6981  11.5210  12.8547  13.0421  13.0421  15.3356  15.5856  15.7546
    16.0361  16.0361  17.7480  18.2773  18.2773  18.7207  18.8139  19.9888
    19.9888  20.1243  20.1429  20.2202  20.2202  20.2826  20.3766  20.8708
    23.0982  23.2966

          k = 0.0000 0.0000 0.3333 ( 12553 PWs)   bands (ev):

   -67.3499 -67.3152 -67.3024 -66.5343 -33.9784 -33.9784 -33.9750 -33.2328
   -33.2239 -33.2239 -33.1987 -33.1987 -33.1939 -32.6579 -32.6470 -32.6470
     0.9225  10.8626  12.8211  12.8211  13.2718  15.2192  15.9596  15.9956
    16.4089  16.4089  17.4487  18.5182  18.5182  18.5893  18.7027  19.4684
    19.4684  19.7687  19.8263  20.0528  20.0528  20.2831  20.3215  20.8710
    22.9356  23.5440

          k = 0.0000 0.0000 0.4444 ( 12544 PWs)   bands (ev):

   -67.3434 -67.3215 -67.3024 -66.5344 -33.9760 -33.9760 -33.9717 -33.2336
   -33.2221 -33.2221 -33.2007 -33.2007 -33.1945 -32.6634 -32.6493 -32.6493
     1.0804  10.3965  12.6956  12.6956  13.9347  14.7947  16.2272  16.2616
    16.6610  16.6610  17.1794  18.4156  18.6443  18.7636  18.7636  19.0531
    19.0531  19.4979  19.6038  19.9436  19.9436  20.2834  20.2855  20.8712
    22.9016  23.7479

          k = 0.0000 0.1111 0.1111 ( 12557 PWs)   bands (ev):

   -67.3599 -67.3048 -67.3033 -66.5339 -33.9978 -33.9838 -33.9691 -33.2348
   -33.2283 -33.2275 -33.1974 -33.1939 -33.1864 -32.6459 -32.6417 -32.6400
     0.5843  11.7908  12.8622  13.1407  13.1803  15.3466  15.3812  15.6568
    15.8147  15.8155  17.9272  18.1263  18.1579  18.7523  18.7969  20.1519
    20.1888  20.2135  20.2574  20.3572  20.4304  20.5233  20.5311  20.7749
    23.1398  23.8584

          k = 0.0000 0.1111 0.2222 ( 12548 PWs)   bands (ev):

   -67.3553 -67.3088 -67.3035 -66.5341 -34.0071 -33.9808 -33.9529 -33.2419
   -33.2257 -33.2253 -33.2007 -33.1967 -33.1812 -32.6523 -32.6448 -32.6422
     0.7672  11.5462  12.5127  12.9612  13.0785  15.4217  15.6385  15.8237
    16.1194  16.1288  17.7349  18.2828  18.2972  18.6948  18.7301  19.8200
    19.9570  19.9615  20.0878  20.2026  20.3614  20.3781  20.4819  20.7402
    23.2072  23.4013

          k = 0.0000 0.1111 0.3333 ( 12541 PWs)   bands (ev):

   -67.3486 -67.3152 -67.3036 -66.5343 -34.0127 -33.9772 -33.9394 -33.2490
   -33.2228 -33.2227 -33.2029 -33.1999 -33.1779 -32.6582 -32.6483 -32.6460
     0.9919  10.8684  12.4342  12.7537  13.4032  15.3132  16.0057  16.0655
    16.4579  16.4685  17.4442  18.3444  18.4939  18.5277  18.6585  19.4837
    19.5001  19.7220  19.8938  19.9376  20.2481  20.3631  20.3845  20.7410
    23.1203  23.4632

          k = 0.0000 0.1111 0.4444 ( 12514 PWs)   bands (ev):

   -67.3422 -67.3215 -67.3035 -66.5345 -34.0153 -33.9749 -33.9316 -33.2533
   -33.2210 -33.2208 -33.2043 -33.2019 -33.1765 -32.6617 -32.6506 -32.6489
     1.1502  10.3979  12.3631  12.6344  14.0098  14.9059  16.3026  16.3043
    16.6883  16.7032  17.1802  18.1821  18.3308  18.7857  18.7916  19.0850
    19.3045  19.5823  19.6173  19.8231  20.1432  20.3060  20.3649  20.7426
    23.1032  23.5994

          k = 0.0000 0.2222 0.2222 ( 12528 PWs)   bands (ev):

   -67.3510 -67.3106 -67.3058 -66.5343 -34.0285 -33.9778 -33.9263 -33.2580
   -33.2254 -33.2228 -33.2044 -33.1995 -33.1668 -32.6561 -32.6479 -32.6422
     0.9507  11.4992  11.8224  12.7780  13.2517  15.6151  15.7741  15.9975
    16.3298  16.3638  17.6310  18.2674  18.3696  18.5063  18.5788  19.6837
    19.7681  19.8180  19.9192  20.0934  20.4437  20.4478  20.5156  20.6850
    23.1193  23.9534

          k = 0.0000 0.2222 0.3333 ( 12527 PWs)   bands (ev):

   -67.3448 -67.3156 -67.3068 -66.5345 -34.0435 -33.9743 -33.9053 -33.2717
   -33.2252 -33.2196 -33.2087 -33.2027 -33.1556 -32.6578 -32.6516 -32.6446
     1.1764  10.8720  11.6512  12.5970  13.6635  15.5698  16.0779  16.2383
    16.5925  16.6218  17.4053  17.9796  18.2660  18.5838  18.5888  19.5184
    19.5368  19.7118  19.7454  19.8916  20.4107  20.4111  20.4840  20.6813
    23.0116  23.7345

          k = 0.0000 0.2222 0.4444 ( 12515 PWs)   bands (ev):

   -67.3387 -67.3213 -67.3070 -66.5346 -34.0512 -33.9721 -33.8936 -33.2793
   -33.2240 -33.2176 -33.2125 -33.2047 -33.1497 -32.6572 -32.6540 -32.6479
     1.3357  10.3962  11.6142  12.4904  14.2182  15.2001  16.3418  16.4884
    16.7635  16.8472  17.1758  17.7080  18.1344  18.6118  18.8661  19.1779
    19.3754  19.6219  19.6727  19.8138  20.3955  20.4158  20.4755  20.5145
    23.0490  23.6573

          k = 0.0000 0.3333 0.3333 ( 12518 PWs)   bands (ev):

   -67.3392 -67.3173 -67.3104 -66.5346 -34.0659 -33.9710 -33.8790 -33.2896
   -33.2276 -33.2161 -33.2158 -33.2059 -33.1379 -32.6556 -32.6554 -32.6448
     1.4040  10.8321  10.8971  12.4377  14.0754  15.8684  16.0260  16.4609
    16.7898  16.7992  17.2931  17.6316  18.0637  18.5079  18.7330  19.3589
    19.5306  19.5349  19.7314  19.9250  20.1459  20.5074  20.5139  20.8576
    22.5356  24.3135

          k = 0.0000 0.3333 0.4444 ( 12517 PWs)   bands (ev):

   -67.3334 -67.3212 -67.3121 -66.5347 -34.0776 -33.9689 -33.8647 -33.2993
   -33.2278 -33.2219 -33.2138 -33.2080 -33.1283 -32.6579 -32.6521 -32.6469
     1.5648  10.3854  10.8478  12.3421  14.5568  15.6033  16.2204  16.6898
    16.8596  17.0666  17.1527  17.3660  17.9799  18.4026  18.9745  19.2076
    19.2667  19.5029  19.5850  20.0348  20.0961  20.5259  20.5914  20.7764
    22.3311  24.3168

          k = 0.0000 0.4444 0.4444 ( 12492 PWs)   bands (ev):

   -67.3274 -67.3216 -67.3176 -66.5348 -34.0916 -33.9667 -33.8490 -33.3099
   -33.2300 -33.2284 -33.2113 -33.2101 -33.1167 -32.6605 -32.6484 -32.6468
     1.7271  10.3718  10.3758  12.2524  14.9225  15.9622  15.9823  16.8461
    16.9117  16.9142  17.1167  17.5508  17.9121  18.1334  19.0469  19.0622
    19.3045  19.4723  19.5335  19.7153  20.2628  20.5386  20.7786  20.8778
    21.8697  24.8267

          k = 0.1111 0.1111 0.1111 ( 12563 PWs)   bands (ev):

   -67.3583 -67.3048 -67.3048 -66.5340 -34.0111 -33.9680 -33.9680 -33.2357
   -33.2305 -33.2305 -33.1953 -33.1953 -33.1826 -32.6496 -32.6409 -32.6409
     0.6533  11.8237  12.7773  12.7773  13.1936  15.4347  15.4347  15.7979
    15.7979  15.9800  17.8994  18.1708  18.1708  18.7707  18.7707  20.0059
    20.1165  20.1422  20.1422  20.4007  20.4007  20.4021  20.6832  20.6832
    23.1812  24.0626

          k = 0.1111 0.1111 0.2222 ( 12529 PWs)   bands (ev):

   -67.3538 -67.3090 -67.3047 -66.5342 -34.0254 -33.9652 -33.9472 -33.2432
   -33.2377 -33.2284 -33.1952 -33.1925 -33.1768 -32.6554 -32.6433 -32.6427
     0.8364  11.5662  12.4036  12.5863  13.2016  15.5071  15.6957  15.9215
    16.1320  16.2324  17.7285  18.2746  18.2895  18.6802  18.6805  19.6474
    19.7885  19.9248  19.9927  20.2989  20.4493  20.4715  20.5382  20.7273
    23.2586  23.5524

          k = 0.1111 0.1111 0.3333 ( 12526 PWs)   bands (ev):

   -67.3473 -67.3153 -67.3047 -66.5344 -34.0351 -33.9620 -33.9301 -33.2513
   -33.2454 -33.2238 -33.1935 -33.1922 -33.1726 -32.6594 -32.6473 -32.6459
     1.0616  10.8681  12.3699  12.3991  13.5155  15.4059  16.0631  16.1449
    16.4746  16.5168  17.4470  18.2331  18.3237  18.6236  18.6586  19.2550
    19.5476  19.7155  19.8096  20.1301  20.3508  20.3764  20.5341  20.6671
    23.2544  23.4790

          k = 0.1111 0.1111 0.4444 ( 12521 PWs)   bands (ev):

   -67.3410 -67.3214 -67.3047 -66.5345 -34.0399 -33.9598 -33.9203 -33.2561
   -33.2501 -33.2197 -33.1937 -33.1920 -33.1704 -32.6602 -32.6519 -32.6477
     1.2202  10.3942  12.2894  12.3295  14.0813  15.0141  16.3634  16.3824
    16.6155  16.8203  17.1839  17.9897  18.2136  18.7873  18.8093  19.0182
    19.2799  19.6463  19.6873  20.0051  20.1068  20.3069  20.5545  20.6460
    23.2677  23.5691

          k = 0.1111 0.2222 0.2222 ( 12537 PWs)   bands (ev):

   -67.3497 -67.3106 -67.3070 -66.5343 -34.0484 -33.9563 -33.9256 -33.2586
   -33.2399 -33.2387 -33.1903 -33.1873 -33.1654 -32.6594 -32.6450 -32.6423
     1.0203  11.5142  11.7665  12.3871  13.3761  15.7045  15.8409  16.1111
    16.3313  16.3850  17.6416  18.2108  18.2629  18.5893  18.6018  19.4316
    19.5366  19.8335  19.8427  20.2439  20.4424  20.4845  20.7326  20.8287
    23.2304  23.9474

          k = 0.1111 0.2222 0.3333 ( 12525 PWs)   bands (ev):

   -67.3437 -67.3156 -67.3078 -66.5345 -34.0654 -33.9523 -33.9039 -33.2731
   -33.2496 -33.2377 -33.1874 -33.1850 -33.1547 -32.6603 -32.6480 -32.6443
     1.2467  10.8576  11.6117  12.2611  13.7621  15.6579  16.1554  16.3304
    16.5272  16.6654  17.4262  17.9406  18.1450  18.6007  18.6608  19.2782
    19.3046  19.7070  19.8063  20.0897  20.3804  20.4334  20.7264  20.8365
    23.1214  23.7699

          k = 0.1111 0.2222 0.4444 ( 12540 PWs)   bands (ev):

   -67.3377 -67.3213 -67.3079 -66.5346 -34.0742 -33.9501 -33.8915 -33.2812
   -33.2554 -33.2365 -33.1857 -33.1849 -33.1489 -32.6575 -32.6525 -32.6463
     1.4065  10.3802  11.5688  12.1837  14.2831  15.2976  16.4054  16.5687
    16.6594  16.9777  17.1955  17.6110  18.0539  18.6268  18.8411  19.0778
    19.1793  19.7031  19.8061  19.9541  20.3196  20.3831  20.4881  20.8722
    23.1472  23.7265

          k = 0.1111 0.3333 0.3333 ( 12528 PWs)   bands (ev):

   -67.3383 -67.3173 -67.3113 -66.5346 -34.0885 -33.9479 -33.8787 -33.2919
   -33.2523 -33.2488 -33.1844 -33.1826 -33.1376 -32.6593 -32.6492 -32.6441
     1.4752  10.8125  10.8548  12.1298  14.1548  15.9505  16.0733  16.5540
    16.6812  16.8733  17.3269  17.6479  17.9843  18.5074  18.7406  19.0988
    19.3924  19.5426  19.9240  19.9250  20.2618  20.4113  20.8985  20.9781
    22.5961  24.2111

          k = 0.1111 0.3333 0.4444 ( 12508 PWs)   bands (ev):

   -67.3328 -67.3212 -67.3127 -66.5347 -34.1008 -33.9456 -33.8643 -33.3020
   -33.2581 -33.2512 -33.1829 -33.1821 -33.1282 -32.6573 -32.6497 -32.6455
     1.6369  10.3569  10.8092  12.0488  14.6043  15.6785  16.2442  16.7774
    16.8628  17.0625  17.1775  17.4110  17.9284  18.4038  18.8156  18.9914
    19.3558  19.5851  19.7345  19.9966  20.1410  20.5095  20.7321  21.0731
    22.3520  24.2449

          k = 0.1111 0.4444 0.4444 ( 12499 PWs)   bands (ev):

   -67.3271 -67.3216 -67.3179 -66.5348 -34.1151 -33.9433 -33.8489 -33.3131
   -33.2602 -33.2595 -33.1816 -33.1813 -33.1167 -32.6579 -32.6468 -32.6455
     1.8003  10.3373  10.3388  11.9663  14.9331  15.9995  16.0393  16.8469
    16.9394  17.0015  17.1565  17.6200  17.8811  18.1383  18.6868  19.0344
    19.4390  19.5800  19.6275  19.9199  19.9910  20.7272  20.8655  21.1313
    21.8235  24.5856

          k = 0.2222 0.2222 0.2222 ( 12524 PWs)   bands (ev):

   -67.3460 -67.3106 -67.3106 -66.5344 -34.0772 -33.9236 -33.9236 -33.2610
   -33.2610 -33.2583 -33.1743 -33.1743 -33.1595 -32.6624 -32.6427 -32.6427
     1.2053  11.5057  11.6334  11.6334  13.6118  15.9657  15.9657  16.3812
    16.3962  16.3962  17.6135  18.0861  18.0861  18.6337  18.6337  19.2217
    19.2256  19.7409  19.7409  20.3383  20.4372  20.4372  21.0803  21.0803
    23.3974  23.8154

          k = 0.2222 0.2222 0.3333 ( 12517 PWs)   bands (ev):

   -67.3405 -67.3158 -67.3105 -66.5346 -34.0992 -33.9213 -33.8969 -33.2781
   -33.2757 -33.2612 -33.1693 -33.1638 -33.1499 -32.6614 -32.6443 -32.6432
     1.4338  10.8144  11.4943  11.5404  14.0011  15.8918  16.3474  16.3802
    16.5660  16.7440  17.4590  17.8194  17.9648  18.6058  18.6851  18.9746
    19.2132  19.6810  19.7894  20.2385  20.3909  20.4170  20.9559  21.2856
    23.3375  23.6138

          k = 0.2222 0.2222 0.4444 ( 12513 PWs)   bands (ev):

   -67.3350 -67.3212 -67.3105 -66.5346 -34.1109 -33.9198 -33.8822 -33.2875
   -33.2844 -33.2622 -33.1675 -33.1590 -33.1439 -32.6568 -32.6490 -32.6435
     1.5953  10.3374  11.4093  11.5221  14.4638  15.5469  16.4098  16.6963
    16.7871  17.0774  17.2510  17.4546  17.9244  18.6155  18.7203  18.7987
    19.2517  19.7833  19.8995  20.1211  20.3449  20.3568  20.5390  21.3920
    23.3748  23.4640

          k = 0.2222 0.3333 0.3333 ( 12520 PWs)   bands (ev):

   -67.3359 -67.3172 -67.3136 -66.5346 -34.1260 -33.9089 -33.8778 -33.2979
   -33.2823 -33.2784 -33.1583 -33.1565 -33.1367 -32.6587 -32.6433 -32.6424
     1.6653  10.7519  10.7599  11.4199  14.3574  16.1252  16.1726  16.5860
    16.7956  16.9207  17.4226  17.6827  17.8431  18.5147  18.6476  18.7610
    19.3525  19.6421  19.8904  20.1763  20.3803  20.3974  21.0669  21.4861
    22.7513  23.7079

          k = 0.2222 0.3333 0.4444 ( 12507 PWs)   bands (ev):

   -67.3309 -67.3212 -67.3145 -66.5347 -34.1405 -33.9060 -33.8631 -33.3090
   -33.2910 -33.2828 -33.1560 -33.1518 -33.1277 -32.6542 -32.6451 -32.6421
     1.8296  10.2854  10.7139  11.3581  14.7231  15.8568  16.2687  16.8384
    17.0106  17.0609  17.3087  17.5572  17.8459  18.4190  18.5338  18.7260
    19.4678  19.7472  19.9625  20.0611  20.3210  20.4543  20.7322  21.6897
    22.3542  23.6881

          k = 0.2222 0.4444 0.4444 ( 12518 PWs)   bands (ev):

   -67.3262 -67.3216 -67.3187 -66.5347 -34.1565 -33.9021 -33.8488 -33.3210
   -33.2948 -33.2941 -33.1505 -33.1503 -33.1166 -32.6513 -32.6427 -32.6423
     1.9962  10.2480  10.2521  11.2851  14.9444  16.0837  16.1700  16.6779
    17.2033  17.2399  17.3383  17.7453  17.8433  18.1949  18.3675  18.7275
    19.6941  19.7349  19.8892  19.9598  20.2299  20.6465  20.8150  21.6135
    21.8565  23.8904

          k = 0.3333 0.3333 0.3333 ( 12505 PWs)   bands (ev):

   -67.3322 -67.3172 -67.3172 -66.5347 -34.1566 -33.8767 -33.8767 -33.3056
   -33.3056 -33.2997 -33.1402 -33.1402 -33.1331 -32.6543 -32.6403 -32.6403
     1.9014  10.6411  10.6411  10.7352  14.6292  16.0840  16.4466  16.4466
    17.0958  17.0958  17.5102  17.7473  17.7473  18.4506  18.5256  18.5256
    19.5065  19.8515  19.8515  20.2898  20.3761  20.3761  21.3676  21.3676
    22.9690  22.9690

          k = 0.3333 0.3333 0.4444 ( 12520 PWs)   bands (ev):

   -67.3281 -67.3212 -67.3172 -66.5347 -34.1733 -33.8760 -33.8590 -33.3183
   -33.3143 -33.3073 -33.1375 -33.1311 -33.1254 -32.6488 -32.6410 -32.6390
     2.0696  10.2051  10.5720  10.6656  14.8542  16.0353  16.2876  16.6328
    17.3155  17.3326  17.5108  17.7317  17.8244  18.2900  18.4214  18.5173
    19.6668  19.9043  20.0203  20.2102  20.3907  20.4083  20.7761  21.7176
    22.3423  23.1531

          k = 0.3333 0.4444 0.4444 ( 12510 PWs)   bands (ev):

   -67.3249 -67.3215 -67.3200 -66.5347 -34.1912 -33.8675 -33.8486 -33.3298
   -33.3213 -33.3204 -33.1283 -33.1279 -33.1164 -32.6436 -32.6385 -32.6383
     2.2411  10.1491  10.1586  10.5578  14.9332  16.1687  16.2823  16.4796
    17.5926  17.5995  17.6672  17.8603  17.8667  18.1336  18.3002  18.4925
    19.8639  19.9512  20.0418  20.1416  20.4199  20.4854  20.7229  21.2313
    22.3663  23.1197

          k = 0.4444 0.4444 0.4444 ( 12559 PWs)   bands (ev):

   -67.3233 -67.3215 -67.3215 -66.5347 -34.2104 -33.8485 -33.8485 -33.3356
   -33.3356 -33.3345 -33.1168 -33.1168 -33.1159 -32.6381 -32.6361 -32.6361
     2.4168  10.0869  10.0869  10.1095  14.9150  16.2387  16.3300  16.3300
    17.8950  17.8950  17.9811  17.9811  17.9853  18.0024  18.3665  18.3665
    20.0132  20.0711  20.0711  20.2606  20.3448  20.3448  20.7350  20.7350
    22.6689  22.6689

     the Fermi energy is    18.7319 ev

!    total energy              =   -1345.17094632 Ry
     Harris-Foulkes estimate   =   -1345.17094632 Ry
     estimated scf accuracy    <          7.7E-10 Ry

     total all-electron energy =    -10291.772582 Ry

     The total energy is the sum of the following terms:

     one-electron contribution =    -446.73790025 Ry
     hartree contribution      =     269.20301609 Ry
     xc contribution           =    -117.08741101 Ry
     ewald contribution        =    -711.61403732 Ry
     one-center paw contrib.   =    -338.93470453 Ry
     smearing contrib. (-TS)   =       0.00009070 Ry

     total magnetization       =     7.68 Bohr mag/cell
     absolute magnetization    =     8.03 Bohr mag/cell

     convergence has been achieved in  26 iterations

     Forces acting on atoms (Ry/au):


     negative rho (up, down):  0.000E+00 1.402E-04
     atom    1 type  1   force =     0.00000000    0.00000000    0.00000000
     atom    2 type  1   force =     0.00000000    0.00000000    0.00000000
     atom    3 type  1   force =     0.00000000    0.00000000    0.00000000
     atom    4 type  1   force =     0.00000000    0.00000000    0.00000000
     atom    5 type  2   force =     0.00000000    0.00000000    0.00000000

     Total force =     0.000000     Total SCF correction =     0.000000


     entering subroutine stress ...


     negative rho (up, down):  0.000E+00 1.402E-04
          total   stress  (Ry/bohr**3)                   (kbar)     P=  150.00
   0.00101965   0.00000000   0.00000000        150.00      0.00      0.00
   0.00000000   0.00101965   0.00000000          0.00    150.00      0.00
   0.00000000   0.00000000   0.00101965          0.00      0.00    150.00


     Writing output data file config.save
 
     init_run     :      6.50s CPU      6.98s WALL (       1 calls)
     electrons    :    424.50s CPU    433.00s WALL (       1 calls)
     forces       :      1.72s CPU      1.79s WALL (       1 calls)
     stress       :      6.04s CPU      6.13s WALL (       1 calls)

     Called by init_run:
     wfcinit      :      5.30s CPU      5.64s WALL (       1 calls)
     potinit      :      0.54s CPU      0.60s WALL (       1 calls)

     Called by electrons:
     c_bands      :    339.18s CPU    344.53s WALL (      26 calls)
     sum_band     :     68.06s CPU     69.73s WALL (      26 calls)
     v_of_rho     :      2.75s CPU      2.79s WALL (      27 calls)
     newd         :      3.82s CPU      4.78s WALL (      27 calls)
     mix_rho      :      0.80s CPU      0.80s WALL (      26 calls)

     Called by c_bands:
     init_us_2    :      7.39s CPU      7.54s WALL (    3850 calls)
     cegterg      :    313.25s CPU    318.18s WALL (    1820 calls)

     Called by sum_band:
     sum_band:bec :      0.06s CPU      0.06s WALL (    1820 calls)
     addusdens    :      9.56s CPU     10.48s WALL (      26 calls)

     Called by *egterg:
     h_psi        :    221.46s CPU    225.44s WALL (    6280 calls)
     s_psi        :     10.85s CPU     11.03s WALL (    6280 calls)
     g_psi        :      1.94s CPU      1.96s WALL (    4390 calls)
     cdiaghg      :     17.93s CPU     18.15s WALL (    6210 calls)

     Called by h_psi:
     add_vuspsi   :     10.64s CPU     10.85s WALL (    6280 calls)

     General routines
     calbec       :     17.50s CPU     17.82s WALL (    8450 calls)
     fft          :      1.54s CPU      1.55s WALL (     871 calls)
     ffts         :      0.10s CPU      0.10s WALL (     106 calls)
     fftw         :    196.46s CPU    199.94s WALL (  438304 calls)
     interpolate  :      0.36s CPU      0.37s WALL (     106 calls)
     davcio       :      0.12s CPU      0.41s WALL (      70 calls)
 
     Parallel routines
     fft_scatter  :     72.87s CPU     74.46s WALL (  439281 calls)

     PAW routines
     PAW_pot      :     10.17s CPU     10.61s WALL (      27 calls)
     PAW_symme    :      0.04s CPU      0.04s WALL (      53 calls)
 
     PWSCF        :  7m19.38s CPU     7m28.97s WALL

 
   This run was terminated on:  14:52:20  27Oct2020            

=------------------------------------------------------------------------------=
   JOB DONE.
=------------------------------------------------------------------------------=
