
     Program PWSCF v.5.2.0 starts on 27Oct2020 at 15:52:21 

     This program is part of the open-source Quantum ESPRESSO suite
     for quantum simulation of materials; please cite
         "P. Giannozzi et al., J. Phys.:Condens. Matter 21 395502 (2009);
          URL http://www.quantum-espresso.org", 
     in publications or presentations arising from this work. More details at
     http://www.quantum-espresso.org/quote

     Parallel version (MPI), running on     6 processors
     R & G space division:  proc/nbgrp/npool/nimage =       6
     Reading input from 9.in

     Current dimensions of program PWSCF are:
     Max number of different atomic species (ntypx) = 10
     Max number of k-points (npk) =  40000
     Max angular momentum in pseudopotentials (lmaxx) =  3

     IMPORTANT: XC functional enforced from input :
     Exchange-correlation      = PBE ( 1  4  3  4 0 0)
     Any further DFT definition will be discarded
     Please, verify this is what you really want

               file Fe_PSEUDO: wavefunction(s)  3P 3D renormalized
               file N_PSEUDO: wavefunction(s)  2S renormalized

     Subspace diagonalization in iterative solution of the eigenvalue problem:
     a serial algorithm will be used

 
     Parallelization info
     --------------------
     sticks:   dense  smooth     PW     G-vecs:    dense   smooth      PW
     Min         979     433    120                56349    16723    2460
     Max         980     434    121                56352    16734    2463
     Sum        5877    2601    725               338107   100377   14771
 
     Generating pointlists ...
     new r_m :   0.2063 (alat units)  1.4318 (a.u.) for type    1
     new r_m :   0.2063 (alat units)  1.4318 (a.u.) for type    2


     bravais-lattice index     =            0
     lattice parameter (alat)  =       6.9422  a.u.
     unit-cell volume          =     334.5777 (a.u.)^3
     number of atoms/cell      =            5
     number of atomic types    =            2
     number of electrons       =        69.00
     number of Kohn-Sham states=           42
     kinetic-energy cutoff     =     170.0000  Ry
     charge density cutoff     =    1530.0000  Ry
     convergence threshold     =      1.0E-08
     mixing beta               =       0.7000
     number of iterations used =            8  plain     mixing
     Exchange-correlation      = PBE ( 1  4  3  4 0 0)

     celldm(1)=   6.942230  celldm(2)=   0.000000  celldm(3)=   0.000000
     celldm(4)=   0.000000  celldm(5)=   0.000000  celldm(6)=   0.000000

     crystal axes: (cart. coord. in units of alat)
               a(1) = (   1.000000   0.000000   0.000000 )  
               a(2) = (   0.000000   1.000000   0.000000 )  
               a(3) = (   0.000000   0.000000   1.000000 )  

     reciprocal axes: (cart. coord. in units 2 pi/alat)
               b(1) = (  1.000000  0.000000  0.000000 )  
               b(2) = (  0.000000  1.000000  0.000000 )  
               b(3) = (  0.000000  0.000000  1.000000 )  


     PseudoPot. # 1 for Fe read from file:
     pseudo/Fe_PSEUDO
     MD5 check sum: e30d5f36a6f0cb983ee41abee56170da
     Pseudo is Projector augmented-wave + core cor, Zval = 16.0
     Generated using "atomic" code by A. Dal Corso  v.6.3
     Shape of augmentation charge: PSQ
     Using radial grid of 1191 points,  6 beta functions with: 
                l(1) =   0
                l(2) =   0
                l(3) =   1
                l(4) =   1
                l(5) =   2
                l(6) =   2
     Q(r) pseudized with 0 coefficients 


     PseudoPot. # 2 for  N read from file:
     pseudo/N_PSEUDO
     MD5 check sum: 14c48229446f9f2d411169a3abcbc3fa
     Pseudo is Projector augmented-wave + core cor, Zval =  5.0
     Generated using "atomic" code by A. Dal Corso  v.6.3
     Shape of augmentation charge: PSQ
     Using radial grid of 1085 points,  4 beta functions with: 
                l(1) =   0
                l(2) =   0
                l(3) =   1
                l(4) =   1
     Q(r) pseudized with 0 coefficients 


     atomic species   valence    mass     pseudopotential
        Fe            16.00    55.84500     Fe( 1.00)
        N              5.00    14.00650      N( 1.00)

     Starting magnetic structure 
     atomic species   magnetization
        Fe           0.500
        N           -0.010

     48 Sym. Ops., with inversion, found



   Cartesian axes

     site n.     atom                  positions (alat units)
         1           Fe  tau(   1) = (   0.0000000   0.5000000   0.5000000  )
         2           Fe  tau(   2) = (   0.5000000   0.5000000   0.0000000  )
         3           Fe  tau(   3) = (   0.5000000   0.0000000   0.5000000  )
         4           Fe  tau(   4) = (   0.0000000   0.0000000   0.0000000  )
         5           N   tau(   5) = (   0.5000000   0.5000000   0.5000000  )

     number of k points=    70  Marzari-Vanderbilt smearing, width (Ry)=  0.0050
                       cart. coord. in units 2pi/alat
        k(    1) = (   0.0000000   0.0000000   0.0000000), wk =   0.0013717
        k(    2) = (   0.0000000   0.0000000   0.1111111), wk =   0.0082305
        k(    3) = (   0.0000000   0.0000000   0.2222222), wk =   0.0082305
        k(    4) = (   0.0000000   0.0000000   0.3333333), wk =   0.0082305
        k(    5) = (   0.0000000   0.0000000   0.4444444), wk =   0.0082305
        k(    6) = (   0.0000000   0.1111111   0.1111111), wk =   0.0164609
        k(    7) = (   0.0000000   0.1111111   0.2222222), wk =   0.0329218
        k(    8) = (   0.0000000   0.1111111   0.3333333), wk =   0.0329218
        k(    9) = (   0.0000000   0.1111111   0.4444444), wk =   0.0329218
        k(   10) = (   0.0000000   0.2222222   0.2222222), wk =   0.0164609
        k(   11) = (   0.0000000   0.2222222   0.3333333), wk =   0.0329218
        k(   12) = (   0.0000000   0.2222222   0.4444444), wk =   0.0329218
        k(   13) = (   0.0000000   0.3333333   0.3333333), wk =   0.0164609
        k(   14) = (   0.0000000   0.3333333   0.4444444), wk =   0.0329218
        k(   15) = (   0.0000000   0.4444444   0.4444444), wk =   0.0164609
        k(   16) = (   0.1111111   0.1111111   0.1111111), wk =   0.0109739
        k(   17) = (   0.1111111   0.1111111   0.2222222), wk =   0.0329218
        k(   18) = (   0.1111111   0.1111111   0.3333333), wk =   0.0329218
        k(   19) = (   0.1111111   0.1111111   0.4444444), wk =   0.0329218
        k(   20) = (   0.1111111   0.2222222   0.2222222), wk =   0.0329218
        k(   21) = (   0.1111111   0.2222222   0.3333333), wk =   0.0658436
        k(   22) = (   0.1111111   0.2222222   0.4444444), wk =   0.0658436
        k(   23) = (   0.1111111   0.3333333   0.3333333), wk =   0.0329218
        k(   24) = (   0.1111111   0.3333333   0.4444444), wk =   0.0658436
        k(   25) = (   0.1111111   0.4444444   0.4444444), wk =   0.0329218
        k(   26) = (   0.2222222   0.2222222   0.2222222), wk =   0.0109739
        k(   27) = (   0.2222222   0.2222222   0.3333333), wk =   0.0329218
        k(   28) = (   0.2222222   0.2222222   0.4444444), wk =   0.0329218
        k(   29) = (   0.2222222   0.3333333   0.3333333), wk =   0.0329218
        k(   30) = (   0.2222222   0.3333333   0.4444444), wk =   0.0658436
        k(   31) = (   0.2222222   0.4444444   0.4444444), wk =   0.0329218
        k(   32) = (   0.3333333   0.3333333   0.3333333), wk =   0.0109739
        k(   33) = (   0.3333333   0.3333333   0.4444444), wk =   0.0329218
        k(   34) = (   0.3333333   0.4444444   0.4444444), wk =   0.0329218
        k(   35) = (   0.4444444   0.4444444   0.4444444), wk =   0.0109739
        k(   36) = (   0.0000000   0.0000000   0.0000000), wk =   0.0013717
        k(   37) = (   0.0000000   0.0000000   0.1111111), wk =   0.0082305
        k(   38) = (   0.0000000   0.0000000   0.2222222), wk =   0.0082305
        k(   39) = (   0.0000000   0.0000000   0.3333333), wk =   0.0082305
        k(   40) = (   0.0000000   0.0000000   0.4444444), wk =   0.0082305
        k(   41) = (   0.0000000   0.1111111   0.1111111), wk =   0.0164609
        k(   42) = (   0.0000000   0.1111111   0.2222222), wk =   0.0329218
        k(   43) = (   0.0000000   0.1111111   0.3333333), wk =   0.0329218
        k(   44) = (   0.0000000   0.1111111   0.4444444), wk =   0.0329218
        k(   45) = (   0.0000000   0.2222222   0.2222222), wk =   0.0164609
        k(   46) = (   0.0000000   0.2222222   0.3333333), wk =   0.0329218
        k(   47) = (   0.0000000   0.2222222   0.4444444), wk =   0.0329218
        k(   48) = (   0.0000000   0.3333333   0.3333333), wk =   0.0164609
        k(   49) = (   0.0000000   0.3333333   0.4444444), wk =   0.0329218
        k(   50) = (   0.0000000   0.4444444   0.4444444), wk =   0.0164609
        k(   51) = (   0.1111111   0.1111111   0.1111111), wk =   0.0109739
        k(   52) = (   0.1111111   0.1111111   0.2222222), wk =   0.0329218
        k(   53) = (   0.1111111   0.1111111   0.3333333), wk =   0.0329218
        k(   54) = (   0.1111111   0.1111111   0.4444444), wk =   0.0329218
        k(   55) = (   0.1111111   0.2222222   0.2222222), wk =   0.0329218
        k(   56) = (   0.1111111   0.2222222   0.3333333), wk =   0.0658436
        k(   57) = (   0.1111111   0.2222222   0.4444444), wk =   0.0658436
        k(   58) = (   0.1111111   0.3333333   0.3333333), wk =   0.0329218
        k(   59) = (   0.1111111   0.3333333   0.4444444), wk =   0.0658436
        k(   60) = (   0.1111111   0.4444444   0.4444444), wk =   0.0329218
        k(   61) = (   0.2222222   0.2222222   0.2222222), wk =   0.0109739
        k(   62) = (   0.2222222   0.2222222   0.3333333), wk =   0.0329218
        k(   63) = (   0.2222222   0.2222222   0.4444444), wk =   0.0329218
        k(   64) = (   0.2222222   0.3333333   0.3333333), wk =   0.0329218
        k(   65) = (   0.2222222   0.3333333   0.4444444), wk =   0.0658436
        k(   66) = (   0.2222222   0.4444444   0.4444444), wk =   0.0329218
        k(   67) = (   0.3333333   0.3333333   0.3333333), wk =   0.0109739
        k(   68) = (   0.3333333   0.3333333   0.4444444), wk =   0.0329218
        k(   69) = (   0.3333333   0.4444444   0.4444444), wk =   0.0329218
        k(   70) = (   0.4444444   0.4444444   0.4444444), wk =   0.0109739

     Dense  grid:   338107 G-vectors     FFT dimensions: (  90,  90,  90)

     Smooth grid:   100377 G-vectors     FFT dimensions: (  60,  60,  60)

     Largest allocated arrays     est. size (Mb)     dimensions
        Kohn-Sham Wavefunctions         1.36 Mb     (    2120,   42)
        NL pseudopotentials             2.59 Mb     (    2120,   80)
        Each V/rho on FFT grid          3.71 Mb     (  121500,   2)
        Each G-vector array             0.43 Mb     (   56351)
        G-vector shells                 0.01 Mb     (    1546)
     Largest temporary arrays     est. size (Mb)     dimensions
        Auxiliary wavefunctions         5.43 Mb     (    2120,  168)
        Each subspace H/S matrix        0.43 Mb     (     168,  168)
        Each <psi_i|beta_j> matrix      0.05 Mb     (      80,   42)
        Arrays for rho mixing          14.83 Mb     (  121500,    8)

     Initial potential from superposition of free atoms

     starting charge   68.99837, renormalised to   69.00000
     Starting wfc are   44 randomized atomic wfcs
     Checking if some PAW data can be deallocated... 

     total cpu time spent up to now is        9.9 secs

     per-process dynamical memory:   164.8 Mb

     Self-consistent Calculation

     iteration #  1     ecut=   170.00 Ry     beta=0.70
     Davidson diagonalization with overlap
     ethr =  1.00E-02,  avg # of iterations =  3.1

     negative rho (up, down):  0.000E+00 4.328E-04
 
     Magnetic moment per site:
     atom:    1    charge:   12.7332    magn:    4.0980    constr:    0.0000
     atom:    2    charge:   12.7332    magn:    4.0980    constr:    0.0000
     atom:    3    charge:   12.7332    magn:    4.0980    constr:    0.0000
     atom:    4    charge:   12.6137    magn:    4.1672    constr:    0.0000
     atom:    5    charge:    4.6360    magn:    0.1181    constr:    0.0000

     total cpu time spent up to now is       35.3 secs

     total energy              =   -1344.14404378 Ry
     Harris-Foulkes estimate   =   -1343.44669244 Ry
     estimated scf accuracy    <       2.86640808 Ry

     total magnetization       =    13.87 Bohr mag/cell
     absolute magnetization    =    14.05 Bohr mag/cell

     iteration #  2     ecut=   170.00 Ry     beta=0.70
     Davidson diagonalization with overlap
     ethr =  4.15E-03,  avg # of iterations =  3.3

     negative rho (up, down):  0.000E+00 3.906E-04
 
     Magnetic moment per site:
     atom:    1    charge:   12.7244    magn:    3.8170    constr:    0.0000
     atom:    2    charge:   12.7244    magn:    3.8170    constr:    0.0000
     atom:    3    charge:   12.7244    magn:    3.8170    constr:    0.0000
     atom:    4    charge:   13.0648    magn:    3.5706    constr:    0.0000
     atom:    5    charge:    4.2260    magn:    0.0568    constr:    0.0000

     total cpu time spent up to now is       60.6 secs

     total energy              =   -1343.30192453 Ry
     Harris-Foulkes estimate   =   -1345.75011216 Ry
     estimated scf accuracy    <       8.51315181 Ry

     total magnetization       =     9.38 Bohr mag/cell
     absolute magnetization    =    10.50 Bohr mag/cell

     iteration #  3     ecut=   170.00 Ry     beta=0.70
     Davidson diagonalization with overlap
     ethr =  4.15E-03,  avg # of iterations =  3.5

     negative rho (up, down):  0.000E+00 1.208E-04
 
     Magnetic moment per site:
     atom:    1    charge:   12.8850    magn:    3.4485    constr:    0.0000
     atom:    2    charge:   12.8850    magn:    3.4485    constr:    0.0000
     atom:    3    charge:   12.8850    magn:    3.4485    constr:    0.0000
     atom:    4    charge:   12.8120    magn:    3.0191    constr:    0.0000
     atom:    5    charge:    4.0302    magn:    0.0240    constr:    0.0000

     total cpu time spent up to now is       86.1 secs

     total energy              =   -1343.62298924 Ry
     Harris-Foulkes estimate   =   -1346.18854224 Ry
     estimated scf accuracy    <      25.50021957 Ry

     total magnetization       =     3.80 Bohr mag/cell
     absolute magnetization    =     4.51 Bohr mag/cell

     iteration #  4     ecut=   170.00 Ry     beta=0.70
     Davidson diagonalization with overlap
     ethr =  4.15E-03,  avg # of iterations =  3.2

     negative rho (up, down):  0.000E+00 5.973E-04
 
     Magnetic moment per site:
     atom:    1    charge:   12.7743    magn:    2.2619    constr:    0.0000
     atom:    2    charge:   12.7743    magn:    2.2619    constr:    0.0000
     atom:    3    charge:   12.7743    magn:    2.2619    constr:    0.0000
     atom:    4    charge:   12.7286    magn:    1.8789    constr:    0.0000
     atom:    5    charge:    4.0532    magn:   -0.0486    constr:    0.0000

     total cpu time spent up to now is      110.1 secs

     total energy              =   -1345.02976714 Ry
     Harris-Foulkes estimate   =   -1345.10724094 Ry
     estimated scf accuracy    <       0.54839104 Ry

     total magnetization       =    10.75 Bohr mag/cell
     absolute magnetization    =    11.16 Bohr mag/cell

     iteration #  5     ecut=   170.00 Ry     beta=0.70
     Davidson diagonalization with overlap
     ethr =  7.95E-04,  avg # of iterations =  3.3

     negative rho (up, down):  0.000E+00 3.742E-04
 
     Magnetic moment per site:
     atom:    1    charge:   12.8332    magn:    2.1626    constr:    0.0000
     atom:    2    charge:   12.8332    magn:    2.1626    constr:    0.0000
     atom:    3    charge:   12.8332    magn:    2.1626    constr:    0.0000
     atom:    4    charge:   12.8042    magn:    2.0421    constr:    0.0000
     atom:    5    charge:    4.1100    magn:   -0.0267    constr:    0.0000

     total cpu time spent up to now is      136.0 secs

     total energy              =   -1345.11509488 Ry
     Harris-Foulkes estimate   =   -1345.20239827 Ry
     estimated scf accuracy    <       0.24099163 Ry

     total magnetization       =     9.59 Bohr mag/cell
     absolute magnetization    =     9.95 Bohr mag/cell

     iteration #  6     ecut=   170.00 Ry     beta=0.70
     Davidson diagonalization with overlap
     ethr =  3.49E-04,  avg # of iterations =  3.0

     negative rho (up, down):  0.000E+00 2.169E-04
 
     Magnetic moment per site:
     atom:    1    charge:   12.8271    magn:    2.1149    constr:    0.0000
     atom:    2    charge:   12.8271    magn:    2.1149    constr:    0.0000
     atom:    3    charge:   12.8271    magn:    2.1149    constr:    0.0000
     atom:    4    charge:   12.7931    magn:    2.3697    constr:    0.0000
     atom:    5    charge:    4.1119    magn:    0.0064    constr:    0.0000

     total cpu time spent up to now is      161.1 secs

     total energy              =   -1345.16189177 Ry
     Harris-Foulkes estimate   =   -1345.15766177 Ry
     estimated scf accuracy    <       0.02609370 Ry

     total magnetization       =     9.38 Bohr mag/cell
     absolute magnetization    =     9.72 Bohr mag/cell

     iteration #  7     ecut=   170.00 Ry     beta=0.70
     Davidson diagonalization with overlap
     ethr =  3.78E-05,  avg # of iterations =  1.7

     negative rho (up, down):  0.000E+00 3.032E-04
 
     Magnetic moment per site:
     atom:    1    charge:   12.8277    magn:    1.9572    constr:    0.0000
     atom:    2    charge:   12.8277    magn:    1.9572    constr:    0.0000
     atom:    3    charge:   12.8277    magn:    1.9572    constr:    0.0000
     atom:    4    charge:   12.7727    magn:    2.8101    constr:    0.0000
     atom:    5    charge:    4.1112    magn:    0.0391    constr:    0.0000

     total cpu time spent up to now is      182.4 secs

     total energy              =   -1345.16177230 Ry
     Harris-Foulkes estimate   =   -1345.16365181 Ry
     estimated scf accuracy    <       0.01804853 Ry

     total magnetization       =     9.38 Bohr mag/cell
     absolute magnetization    =     9.71 Bohr mag/cell

     iteration #  8     ecut=   170.00 Ry     beta=0.70
     Davidson diagonalization with overlap
     ethr =  2.62E-05,  avg # of iterations =  2.2

     negative rho (up, down):  0.000E+00 2.940E-04
 
     Magnetic moment per site:
     atom:    1    charge:   12.8309    magn:    1.8625    constr:    0.0000
     atom:    2    charge:   12.8309    magn:    1.8625    constr:    0.0000
     atom:    3    charge:   12.8309    magn:    1.8625    constr:    0.0000
     atom:    4    charge:   12.7752    magn:    2.7251    constr:    0.0000
     atom:    5    charge:    4.1091    magn:    0.0310    constr:    0.0000

     total cpu time spent up to now is      205.3 secs

     total energy              =   -1345.16679778 Ry
     Harris-Foulkes estimate   =   -1345.16582462 Ry
     estimated scf accuracy    <       0.00208668 Ry

     total magnetization       =     9.00 Bohr mag/cell
     absolute magnetization    =     9.35 Bohr mag/cell

     iteration #  9     ecut=   170.00 Ry     beta=0.70
     Davidson diagonalization with overlap
     ethr =  3.02E-06,  avg # of iterations =  2.1

     negative rho (up, down):  0.000E+00 3.170E-04
 
     Magnetic moment per site:
     atom:    1    charge:   12.8287    magn:    1.9950    constr:    0.0000
     atom:    2    charge:   12.8287    magn:    1.9950    constr:    0.0000
     atom:    3    charge:   12.8287    magn:    1.9950    constr:    0.0000
     atom:    4    charge:   12.7742    magn:    2.7580    constr:    0.0000
     atom:    5    charge:    4.1139    magn:    0.0387    constr:    0.0000

     total cpu time spent up to now is      226.5 secs

     total energy              =   -1345.16424478 Ry
     Harris-Foulkes estimate   =   -1345.16761993 Ry
     estimated scf accuracy    <       0.00202601 Ry

     total magnetization       =     8.59 Bohr mag/cell
     absolute magnetization    =     8.97 Bohr mag/cell

     iteration # 10     ecut=   170.00 Ry     beta=0.70
     Davidson diagonalization with overlap
     ethr =  2.94E-06,  avg # of iterations =  1.9

     negative rho (up, down):  0.000E+00 3.282E-04
 
     Magnetic moment per site:
     atom:    1    charge:   12.8273    magn:    2.0780    constr:    0.0000
     atom:    2    charge:   12.8273    magn:    2.0780    constr:    0.0000
     atom:    3    charge:   12.8273    magn:    2.0780    constr:    0.0000
     atom:    4    charge:   12.7752    magn:    2.7416    constr:    0.0000
     atom:    5    charge:    4.1173    magn:    0.0451    constr:    0.0000

     total cpu time spent up to now is      247.5 secs

     total energy              =   -1345.16406081 Ry
     Harris-Foulkes estimate   =   -1345.16568609 Ry
     estimated scf accuracy    <       0.00220364 Ry

     total magnetization       =     9.10 Bohr mag/cell
     absolute magnetization    =     9.44 Bohr mag/cell

     iteration # 11     ecut=   170.00 Ry     beta=0.70
     Davidson diagonalization with overlap
     ethr =  2.94E-06,  avg # of iterations =  1.7

     negative rho (up, down):  0.000E+00 2.528E-04
 
     Magnetic moment per site:
     atom:    1    charge:   12.8341    magn:    1.7217    constr:    0.0000
     atom:    2    charge:   12.8341    magn:    1.7217    constr:    0.0000
     atom:    3    charge:   12.8341    magn:    1.7217    constr:    0.0000
     atom:    4    charge:   12.7751    magn:    2.6959    constr:    0.0000
     atom:    5    charge:    4.1042    magn:    0.0139    constr:    0.0000

     total cpu time spent up to now is      268.5 secs

     total energy              =   -1345.16056069 Ry
     Harris-Foulkes estimate   =   -1345.16454092 Ry
     estimated scf accuracy    <       0.00283535 Ry

     total magnetization       =     9.33 Bohr mag/cell
     absolute magnetization    =     9.66 Bohr mag/cell

     iteration # 12     ecut=   170.00 Ry     beta=0.70
     Davidson diagonalization with overlap
     ethr =  2.94E-06,  avg # of iterations =  3.1

     negative rho (up, down):  0.000E+00 1.806E-04
 
     Magnetic moment per site:
     atom:    1    charge:   12.8413    magn:    1.3197    constr:    0.0000
     atom:    2    charge:   12.8413    magn:    1.3197    constr:    0.0000
     atom:    3    charge:   12.8413    magn:    1.3197    constr:    0.0000
     atom:    4    charge:   12.7743    magn:    2.6494    constr:    0.0000
     atom:    5    charge:    4.0882    magn:   -0.0226    constr:    0.0000

     total cpu time spent up to now is      295.3 secs

     total energy              =   -1345.16136989 Ry
     Harris-Foulkes estimate   =   -1345.16979250 Ry
     estimated scf accuracy    <       0.00120356 Ry

     total magnetization       =     8.19 Bohr mag/cell
     absolute magnetization    =     8.58 Bohr mag/cell

     iteration # 13     ecut=   170.00 Ry     beta=0.70
     Davidson diagonalization with overlap
     ethr =  1.74E-06,  avg # of iterations =  3.4

     negative rho (up, down):  0.000E+00 1.774E-04
 
     Magnetic moment per site:
     atom:    1    charge:   12.8435    magn:    1.2160    constr:    0.0000
     atom:    2    charge:   12.8435    magn:    1.2160    constr:    0.0000
     atom:    3    charge:   12.8435    magn:    1.2160    constr:    0.0000
     atom:    4    charge:   12.7743    magn:    2.6452    constr:    0.0000
     atom:    5    charge:    4.0838    magn:   -0.0328    constr:    0.0000

     total cpu time spent up to now is      326.2 secs

     total energy              =   -1345.16902151 Ry
     Harris-Foulkes estimate   =   -1345.17044599 Ry
     estimated scf accuracy    <       0.00057419 Ry

     total magnetization       =     7.23 Bohr mag/cell
     absolute magnetization    =     7.61 Bohr mag/cell

     iteration # 14     ecut=   170.00 Ry     beta=0.70
     Davidson diagonalization with overlap
     ethr =  8.32E-07,  avg # of iterations =  2.7

     negative rho (up, down):  0.000E+00 1.811E-04
 
     Magnetic moment per site:
     atom:    1    charge:   12.8424    magn:    1.2916    constr:    0.0000
     atom:    2    charge:   12.8424    magn:    1.2916    constr:    0.0000
     atom:    3    charge:   12.8424    magn:    1.2916    constr:    0.0000
     atom:    4    charge:   12.7743    magn:    2.6529    constr:    0.0000
     atom:    5    charge:    4.0857    magn:   -0.0274    constr:    0.0000

     total cpu time spent up to now is      350.5 secs

     total energy              =   -1345.16995936 Ry
     Harris-Foulkes estimate   =   -1345.16968654 Ry
     estimated scf accuracy    <       0.00127194 Ry

     total magnetization       =     6.98 Bohr mag/cell
     absolute magnetization    =     7.35 Bohr mag/cell

     iteration # 15     ecut=   170.00 Ry     beta=0.70
     Davidson diagonalization with overlap
     ethr =  8.32E-07,  avg # of iterations =  2.1

     negative rho (up, down):  0.000E+00 1.823E-04
 
     Magnetic moment per site:
     atom:    1    charge:   12.8428    magn:    1.2901    constr:    0.0000
     atom:    2    charge:   12.8428    magn:    1.2901    constr:    0.0000
     atom:    3    charge:   12.8428    magn:    1.2901    constr:    0.0000
     atom:    4    charge:   12.7749    magn:    2.6617    constr:    0.0000
     atom:    5    charge:    4.0849    magn:   -0.0318    constr:    0.0000

     total cpu time spent up to now is      372.4 secs

     total energy              =   -1345.17039751 Ry
     Harris-Foulkes estimate   =   -1345.17032283 Ry
     estimated scf accuracy    <       0.00075129 Ry

     total magnetization       =     7.17 Bohr mag/cell
     absolute magnetization    =     7.54 Bohr mag/cell

     iteration # 16     ecut=   170.00 Ry     beta=0.70
     Davidson diagonalization with overlap
     ethr =  8.32E-07,  avg # of iterations =  1.0

     negative rho (up, down):  0.000E+00 2.070E-04
 
     Magnetic moment per site:
     atom:    1    charge:   12.8388    magn:    1.4947    constr:    0.0000
     atom:    2    charge:   12.8388    magn:    1.4947    constr:    0.0000
     atom:    3    charge:   12.8388    magn:    1.4947    constr:    0.0000
     atom:    4    charge:   12.7744    magn:    2.6878    constr:    0.0000
     atom:    5    charge:    4.0906    magn:   -0.0194    constr:    0.0000

     total cpu time spent up to now is      392.3 secs

     total energy              =   -1345.16813541 Ry
     Harris-Foulkes estimate   =   -1345.17041138 Ry
     estimated scf accuracy    <       0.00075427 Ry

     total magnetization       =     7.18 Bohr mag/cell
     absolute magnetization    =     7.54 Bohr mag/cell

     iteration # 17     ecut=   170.00 Ry     beta=0.70
     Davidson diagonalization with overlap
     ethr =  8.32E-07,  avg # of iterations =  3.1

     negative rho (up, down):  0.000E+00 2.072E-04
 
     Magnetic moment per site:
     atom:    1    charge:   12.8386    magn:    1.4998    constr:    0.0000
     atom:    2    charge:   12.8386    magn:    1.4998    constr:    0.0000
     atom:    3    charge:   12.8386    magn:    1.4998    constr:    0.0000
     atom:    4    charge:   12.7743    magn:    2.6853    constr:    0.0000
     atom:    5    charge:    4.0910    magn:   -0.0180    constr:    0.0000

     total cpu time spent up to now is      420.2 secs

     total energy              =   -1345.17086124 Ry
     Harris-Foulkes estimate   =   -1345.17086710 Ry
     estimated scf accuracy    <       0.00082583 Ry

     total magnetization       =     7.73 Bohr mag/cell
     absolute magnetization    =     8.07 Bohr mag/cell

     iteration # 18     ecut=   170.00 Ry     beta=0.70
     Davidson diagonalization with overlap
     ethr =  8.32E-07,  avg # of iterations =  1.0

     negative rho (up, down):  0.000E+00 2.097E-04
 
     Magnetic moment per site:
     atom:    1    charge:   12.8364    magn:    1.5509    constr:    0.0000
     atom:    2    charge:   12.8364    magn:    1.5509    constr:    0.0000
     atom:    3    charge:   12.8364    magn:    1.5509    constr:    0.0000
     atom:    4    charge:   12.7739    magn:    2.6673    constr:    0.0000
     atom:    5    charge:    4.0959    magn:   -0.0039    constr:    0.0000

     total cpu time spent up to now is      441.1 secs

     total energy              =   -1345.17060632 Ry
     Harris-Foulkes estimate   =   -1345.17086396 Ry
     estimated scf accuracy    <       0.00070422 Ry

     total magnetization       =     7.74 Bohr mag/cell
     absolute magnetization    =     8.08 Bohr mag/cell

     iteration # 19     ecut=   170.00 Ry     beta=0.70
     Davidson diagonalization with overlap
     ethr =  8.32E-07,  avg # of iterations =  2.0

     negative rho (up, down):  0.000E+00 2.075E-04
 
     Magnetic moment per site:
     atom:    1    charge:   12.8363    magn:    1.5466    constr:    0.0000
     atom:    2    charge:   12.8363    magn:    1.5466    constr:    0.0000
     atom:    3    charge:   12.8363    magn:    1.5466    constr:    0.0000
     atom:    4    charge:   12.7739    magn:    2.6649    constr:    0.0000
     atom:    5    charge:    4.0958    magn:   -0.0035    constr:    0.0000

     total cpu time spent up to now is      463.5 secs

     total energy              =   -1345.17083746 Ry
     Harris-Foulkes estimate   =   -1345.17081788 Ry
     estimated scf accuracy    <       0.00011372 Ry

     total magnetization       =     7.84 Bohr mag/cell
     absolute magnetization    =     8.19 Bohr mag/cell

     iteration # 20     ecut=   170.00 Ry     beta=0.70
     Davidson diagonalization with overlap
     ethr =  1.65E-07,  avg # of iterations =  1.1

     negative rho (up, down):  0.000E+00 1.915E-04
 
     Magnetic moment per site:
     atom:    1    charge:   12.8372    magn:    1.4796    constr:    0.0000
     atom:    2    charge:   12.8372    magn:    1.4796    constr:    0.0000
     atom:    3    charge:   12.8372    magn:    1.4796    constr:    0.0000
     atom:    4    charge:   12.7736    magn:    2.6542    constr:    0.0000
     atom:    5    charge:    4.0943    magn:   -0.0052    constr:    0.0000

     total cpu time spent up to now is      483.5 secs

     total energy              =   -1345.17064880 Ry
     Harris-Foulkes estimate   =   -1345.17084031 Ry
     estimated scf accuracy    <       0.00010281 Ry

     total magnetization       =     7.83 Bohr mag/cell
     absolute magnetization    =     8.18 Bohr mag/cell

     iteration # 21     ecut=   170.00 Ry     beta=0.70
     Davidson diagonalization with overlap
     ethr =  1.49E-07,  avg # of iterations =  3.0

     negative rho (up, down):  0.000E+00 1.914E-04
 
     Magnetic moment per site:
     atom:    1    charge:   12.8372    magn:    1.4816    constr:    0.0000
     atom:    2    charge:   12.8372    magn:    1.4816    constr:    0.0000
     atom:    3    charge:   12.8372    magn:    1.4816    constr:    0.0000
     atom:    4    charge:   12.7737    magn:    2.6538    constr:    0.0000
     atom:    5    charge:    4.0945    magn:   -0.0045    constr:    0.0000

     total cpu time spent up to now is      509.7 secs

     total energy              =   -1345.17093472 Ry
     Harris-Foulkes estimate   =   -1345.17093597 Ry
     estimated scf accuracy    <       0.00001117 Ry

     total magnetization       =     7.66 Bohr mag/cell
     absolute magnetization    =     8.01 Bohr mag/cell

     iteration # 22     ecut=   170.00 Ry     beta=0.70
     Davidson diagonalization with overlap
     ethr =  1.62E-08,  avg # of iterations =  1.2

     negative rho (up, down):  0.000E+00 1.925E-04
 
     Magnetic moment per site:
     atom:    1    charge:   12.8373    magn:    1.4846    constr:    0.0000
     atom:    2    charge:   12.8373    magn:    1.4846    constr:    0.0000
     atom:    3    charge:   12.8373    magn:    1.4846    constr:    0.0000
     atom:    4    charge:   12.7738    magn:    2.6545    constr:    0.0000
     atom:    5    charge:    4.0946    magn:   -0.0043    constr:    0.0000

     total cpu time spent up to now is      529.6 secs

     total energy              =   -1345.17093450 Ry
     Harris-Foulkes estimate   =   -1345.17093533 Ry
     estimated scf accuracy    <       0.00000676 Ry

     total magnetization       =     7.67 Bohr mag/cell
     absolute magnetization    =     8.02 Bohr mag/cell

     iteration # 23     ecut=   170.00 Ry     beta=0.70
     Davidson diagonalization with overlap
     ethr =  9.80E-09,  avg # of iterations =  1.5

     negative rho (up, down):  0.000E+00 1.927E-04
 
     Magnetic moment per site:
     atom:    1    charge:   12.8373    magn:    1.4859    constr:    0.0000
     atom:    2    charge:   12.8373    magn:    1.4859    constr:    0.0000
     atom:    3    charge:   12.8373    magn:    1.4859    constr:    0.0000
     atom:    4    charge:   12.7738    magn:    2.6544    constr:    0.0000
     atom:    5    charge:    4.0947    magn:   -0.0040    constr:    0.0000

     total cpu time spent up to now is      550.4 secs

     total energy              =   -1345.17093573 Ry
     Harris-Foulkes estimate   =   -1345.17093572 Ry
     estimated scf accuracy    <       0.00000029 Ry

     total magnetization       =     7.67 Bohr mag/cell
     absolute magnetization    =     8.02 Bohr mag/cell

     iteration # 24     ecut=   170.00 Ry     beta=0.70
     Davidson diagonalization with overlap
     ethr =  4.23E-10,  avg # of iterations =  3.1

     negative rho (up, down):  0.000E+00 1.927E-04
 
     Magnetic moment per site:
     atom:    1    charge:   12.8373    magn:    1.4861    constr:    0.0000
     atom:    2    charge:   12.8373    magn:    1.4861    constr:    0.0000
     atom:    3    charge:   12.8373    magn:    1.4861    constr:    0.0000
     atom:    4    charge:   12.7738    magn:    2.6541    constr:    0.0000
     atom:    5    charge:    4.0946    magn:   -0.0040    constr:    0.0000

     total cpu time spent up to now is      576.9 secs

     total energy              =   -1345.17093598 Ry
     Harris-Foulkes estimate   =   -1345.17093595 Ry
     estimated scf accuracy    <       0.00000005 Ry

     total magnetization       =     7.68 Bohr mag/cell
     absolute magnetization    =     8.03 Bohr mag/cell

     iteration # 25     ecut=   170.00 Ry     beta=0.70
     Davidson diagonalization with overlap
     ethr =  6.86E-11,  avg # of iterations =  3.1

     negative rho (up, down):  0.000E+00 1.927E-04
 
     Magnetic moment per site:
     atom:    1    charge:   12.8373    magn:    1.4870    constr:    0.0000
     atom:    2    charge:   12.8373    magn:    1.4870    constr:    0.0000
     atom:    3    charge:   12.8373    magn:    1.4870    constr:    0.0000
     atom:    4    charge:   12.7738    magn:    2.6539    constr:    0.0000
     atom:    5    charge:    4.0947    magn:   -0.0037    constr:    0.0000

     total cpu time spent up to now is      602.6 secs

     total energy              =   -1345.17093597 Ry
     Harris-Foulkes estimate   =   -1345.17093604 Ry
     estimated scf accuracy    <       0.00000025 Ry

     total magnetization       =     7.68 Bohr mag/cell
     absolute magnetization    =     8.03 Bohr mag/cell

     iteration # 26     ecut=   170.00 Ry     beta=0.70
     Davidson diagonalization with overlap
     ethr =  6.86E-11,  avg # of iterations =  3.0

     negative rho (up, down):  0.000E+00 1.927E-04
 
     Magnetic moment per site:
     atom:    1    charge:   12.8373    magn:    1.4871    constr:    0.0000
     atom:    2    charge:   12.8373    magn:    1.4871    constr:    0.0000
     atom:    3    charge:   12.8373    magn:    1.4871    constr:    0.0000
     atom:    4    charge:   12.7738    magn:    2.6538    constr:    0.0000
     atom:    5    charge:    4.0947    magn:   -0.0037    constr:    0.0000

     total cpu time spent up to now is      628.6 secs

     End of self-consistent calculation

 ------ SPIN UP ------------


          k = 0.0000 0.0000 0.0000 ( 12533 PWs)   bands (ev):

   -69.9378 -69.2597 -69.2053 -69.2053 -35.9987 -35.9987 -35.9987 -35.6159
   -35.6159 -35.6159 -35.1587 -35.1587 -35.1587 -35.1521 -35.1521 -35.1521
     0.3455  11.4281  13.3303  13.3303  13.3303  13.8396  13.8396  14.1051
    14.1051  14.1051  16.0923  16.0923  16.0923  17.1985  17.1985  17.8462
    17.8462  18.3986  18.3986  18.3986  18.4660  18.4660  18.4660  18.4676
    21.8875  23.7552

          k = 0.0000 0.0000 0.1111 ( 12537 PWs)   bands (ev):

   -69.9377 -69.2583 -69.2068 -69.2053 -35.9977 -35.9977 -35.9973 -35.6147
   -35.6147 -35.6137 -35.1597 -35.1597 -35.1590 -35.1569 -35.1533 -35.1533
     0.4152  11.4854  12.9272  13.1104  13.1104  13.9189  13.9305  14.1574
    14.3442  14.3442  16.0277  16.1463  16.1463  17.2216  17.2573  17.8147
    17.8702  18.3140  18.3140  18.3985  18.3985  18.3987  18.4066  18.4649
    21.9636  23.2362

          k = 0.0000 0.0000 0.2222 ( 12549 PWs)   bands (ev):

   -69.9374 -69.2544 -69.2110 -69.2053 -35.9952 -35.9952 -35.9939 -35.6117
   -35.6117 -35.6077 -35.1695 -35.1625 -35.1625 -35.1597 -35.1561 -35.1561
     0.6002  11.3378  12.5043  12.7672  12.7672  14.0811  14.1354  14.3091
    14.7510  14.7510  15.8449  16.2722  16.2722  17.1944  17.2859  17.7245
    17.7688  17.9544  17.9544  18.2395  18.3991  18.4018  18.4018  18.4622
    22.1775  22.5169

          k = 0.0000 0.0000 0.3333 ( 12553 PWs)   bands (ev):

   -69.9371 -69.2487 -69.2169 -69.2053 -35.9923 -35.9923 -35.9900 -35.6082
   -35.6082 -35.6002 -35.1844 -35.1662 -35.1662 -35.1605 -35.1589 -35.1589
     0.8281  10.6696  12.4973  12.4973  12.8460  14.1976  14.4173  14.5424
    15.1428  15.1428  15.5762  16.3646  16.3646  16.9837  17.3213  17.3617
    17.5818  17.5818  17.6126  18.0173  18.3995  18.4148  18.4148  18.4594
    22.0442  22.5716

          k = 0.0000 0.0000 0.4444 ( 12544 PWs)   bands (ev):

   -69.9369 -69.2434 -69.2224 -69.2052 -35.9904 -35.9904 -35.9875 -35.6058
   -35.6058 -35.5949 -35.1946 -35.1689 -35.1689 -35.1611 -35.1606 -35.1606
     0.9889  10.1828  12.3531  12.3531  13.4006  14.1248  14.6317  14.8080
    15.2873  15.4350  15.4350  16.3333  16.3333  16.7319  16.9440  17.3463
    17.3746  17.3746  17.6401  17.8046  18.3998  18.4300  18.4300  18.4577
    21.9109  22.7894

          k = 0.0000 0.1111 0.1111 ( 12557 PWs)   bands (ev):

   -69.9376 -69.2570 -69.2075 -69.2061 -35.9980 -35.9967 -35.9951 -35.6258
   -35.6135 -35.5994 -35.1700 -35.1607 -35.1602 -35.1570 -35.1545 -35.1482
     0.4850  11.5393  12.6986  12.8568  12.9538  13.9961  14.0039  14.2125
    14.4871  14.5136  16.0040  16.1629  16.1927  17.2489  17.2729  17.7261
    17.7834  18.2263  18.2641  18.3184  18.3246  18.4103  18.4793  18.5428
    22.0242  23.4381

          k = 0.0000 0.1111 0.2222 ( 12548 PWs)   bands (ev):

   -69.9373 -69.2531 -69.2113 -69.2063 -35.9965 -35.9943 -35.9918 -35.6334
   -35.6103 -35.5834 -35.1854 -35.1652 -35.1634 -35.1581 -35.1576 -35.1438
     0.6703  11.3589  12.2605  12.6630  12.6765  14.1572  14.2067  14.3625
    14.8145  14.8590  15.8418  16.2815  16.2890  17.1599  17.3236  17.4382
    17.5844  17.9116  18.1401  18.1985  18.2423  18.3840  18.5586  18.6826
    22.2028  22.6701

          k = 0.0000 0.1111 0.3333 ( 12541 PWs)   bands (ev):

   -69.9370 -69.2475 -69.2170 -69.2064 -35.9937 -35.9915 -35.9892 -35.6371
   -35.6066 -35.5694 -35.2006 -35.1702 -35.1670 -35.1606 -35.1601 -35.1416
     0.8986  10.6614  12.1384  12.4161  12.9459  14.2827  14.4859  14.5915
    15.1752  15.2147  15.5804  16.2917  16.3935  16.9295  17.0979  17.2660
    17.4905  17.5578  17.8567  18.0736  18.1800  18.3776  18.6302  18.6761
    22.2617  22.4505

          k = 0.0000 0.1111 0.4444 ( 12514 PWs)   bands (ev):

   -69.9369 -69.2422 -69.2225 -69.2064 -35.9912 -35.9897 -35.9882 -35.6384
   -35.6042 -35.5610 -35.2103 -35.1734 -35.1696 -35.1623 -35.1615 -35.1407
     1.0599  10.1713  12.0377  12.2806  13.4693  14.2194  14.7010  14.8578
    15.2907  15.4590  15.4817  16.1376  16.3912  16.6630  16.8642  17.2558
    17.3559  17.4658  17.7082  17.8997  18.1438  18.3756  18.6542  18.6762
    22.1431  22.6124

          k = 0.0000 0.2222 0.2222 ( 12528 PWs)   bands (ev):

   -69.9371 -69.2495 -69.2129 -69.2084 -35.9968 -35.9921 -35.9896 -35.6519
   -35.6068 -35.5579 -35.2067 -35.1678 -35.1657 -35.1611 -35.1599 -35.1303
     0.8565  11.2947  11.5675  12.4408  12.7896  14.3577  14.3837  14.5051
    15.0144  15.1104  15.7599  16.2750  16.3630  17.0228  17.0280  17.3105
    17.4588  17.7427  18.0346  18.0888  18.2581  18.3352  18.7089  18.9946
    22.1161  22.9986

          k = 0.0000 0.2222 0.3333 ( 12527 PWs)   bands (ev):

   -69.9369 -69.2442 -69.2175 -69.2093 -35.9954 -35.9896 -35.9890 -35.6644
   -35.6027 -35.5372 -35.2247 -35.1706 -35.1690 -35.1647 -35.1621 -35.1212
     1.0864  10.6285  11.3678  12.2333  13.1803  14.5164  14.6613  14.7164
    15.2789  15.3908  15.5582  16.0663  16.4961  16.7580  16.8088  17.1022
    17.4758  17.6360  17.8031  17.9582  18.1971  18.3523  18.8362  19.0296
    21.9458  22.8236

          k = 0.0000 0.2222 0.4444 ( 12515 PWs)   bands (ev):

   -69.9367 -69.2390 -69.2226 -69.2095 -35.9930 -35.9900 -35.9879 -35.6704
   -35.6000 -35.5255 -35.2352 -35.1725 -35.1715 -35.1666 -35.1637 -35.1168
     1.2492  10.1368  11.3032  12.1146  13.6799  14.4693  14.8909  14.9680
    15.2995  15.4960  15.5998  15.8226  16.5518  16.5536  16.6116  17.0969
    17.2982  17.5290  17.8753  17.8801  18.1780  18.2118  18.9128  18.9633
    21.9129  22.7458

          k = 0.0000 0.3333 0.3333 ( 12518 PWs)   bands (ev):

   -69.9367 -69.2392 -69.2192 -69.2127 -35.9958 -35.9903 -35.9873 -35.6838
   -35.5981 -35.5119 -35.2443 -35.1714 -35.1706 -35.1692 -35.1647 -35.1064
     1.3189  10.5582  10.5959  12.0538  13.5742  14.8385  14.8435  14.8884
    15.4141  15.4604  15.5953  15.7406  16.5554  16.6484  16.6581  16.8989
    17.3284  17.6095  17.7587  17.9056  18.0441  18.5482  19.0047  19.1748
    21.2663  23.3557

          k = 0.0000 0.3333 0.4444 ( 12517 PWs)   bands (ev):

   -69.9366 -69.2341 -69.2227 -69.2143 -35.9947 -35.9925 -35.9858 -35.6938
   -35.5950 -35.4979 -35.2552 -35.1737 -35.1716 -35.1706 -35.1664 -35.0987
     1.4839  10.0900  10.5351  11.9484  14.0224  14.7993  15.0852  15.1284
    15.2955  15.5101  15.5584  15.7468  16.4019  16.4742  16.7780  16.8319
    17.2035  17.4001  17.6213  17.9745  18.1741  18.5813  19.1033  19.1302
    20.9081  23.4489

          k = 0.0000 0.4444 0.4444 ( 12492 PWs)   bands (ev):

   -69.9365 -69.2286 -69.2232 -69.2195 -35.9954 -35.9945 -35.9844 -35.7062
   -35.5918 -35.4827 -35.2661 -35.1752 -35.1749 -35.1692 -35.1683 -35.0891
     1.6508  10.0558  10.0563  11.8498  14.3682  15.0248  15.1861  15.2541
    15.2592  15.4092  15.5747  15.8595  16.3141  16.3959  16.5771  16.9872
    17.1140  17.2350  17.4100  17.8582  18.3843  18.9446  19.1754  19.2134
    20.1307  23.9983

          k = 0.1111 0.1111 0.1111 ( 12563 PWs)   bands (ev):

   -69.9375 -69.2556 -69.2075 -69.2075 -35.9973 -35.9973 -35.9928 -35.6380
   -35.5982 -35.5982 -35.1730 -35.1693 -35.1693 -35.1503 -35.1484 -35.1484
     0.5548  11.5894  12.5637  12.5637  12.8356  14.0720  14.0720  14.3898
    14.3898  14.7343  15.9887  16.2024  16.2024  17.2670  17.2670  17.6645
    17.6645  17.9914  18.1236  18.3445  18.3445  18.4201  18.6413  18.6413
    22.0744  23.5626

          k = 0.1111 0.1111 0.2222 ( 12529 PWs)   bands (ev):

   -69.9372 -69.2519 -69.2114 -69.2074 -35.9963 -35.9955 -35.9896 -35.6502
   -35.5953 -35.5778 -35.1896 -35.1797 -35.1710 -35.1505 -35.1455 -35.1433
     0.7405  11.3710  12.1432  12.2979  12.7588  14.2326  14.2777  14.4627
    14.7623  15.0135  15.8443  16.2849  16.2954  17.1764  17.2944  17.3842
    17.4080  17.7637  17.9273  18.2178  18.3455  18.3566  18.8023  18.8331
    22.2209  22.8348

          k = 0.1111 0.1111 0.3333 ( 12526 PWs)   bands (ev):

   -69.9370 -69.2464 -69.2171 -69.2074 -35.9936 -35.9935 -35.9876 -35.6577
   -35.5920 -35.5604 -35.2059 -35.1884 -35.1721 -35.1523 -35.1462 -35.1392
     0.9694  10.6461  12.0640  12.0768  13.0383  14.3639  14.5549  14.6651
    15.1712  15.2806  15.5909  16.2782  16.3445  16.9170  17.0711  17.1119
    17.4312  17.6066  17.7045  18.0900  18.2505  18.3343  18.6814  18.9927
    22.4190  22.4435

          k = 0.1111 0.1111 0.4444 ( 12521 PWs)   bands (ev):

   -69.9368 -69.2412 -69.2225 -69.2074 -35.9922 -35.9903 -35.9879 -35.6610
   -35.5897 -35.5502 -35.2159 -35.1933 -35.1727 -35.1534 -35.1477 -35.1372
     1.1312  10.1542  11.9341  12.0077  13.5365  14.3074  14.7711  14.9233
    15.3011  15.4551  15.5307  16.0758  16.2782  16.6261  16.9676  17.0974
    17.3343  17.4994  17.7095  17.9304  18.1847  18.3241  18.5242  19.0842
    22.3369  22.5624

          k = 0.1111 0.2222 0.2222 ( 12537 PWs)   bands (ev):

   -69.9371 -69.2484 -69.2129 -69.2096 -35.9967 -35.9946 -35.9872 -35.6703
   -35.5861 -35.5570 -35.2077 -35.1847 -35.1813 -35.1461 -35.1452 -35.1305
     0.9272  11.2970  11.4891  12.0699  12.8956  14.4282  14.4566  14.6313
    14.9392  15.2090  15.7703  16.2698  16.3404  17.0319  17.0920  17.2144
    17.3960  17.5444  17.7225  18.2483  18.2500  18.3220  19.0780  19.1108
    22.1897  23.1065

          k = 0.1111 0.2222 0.3333 ( 12525 PWs)   bands (ev):

   -69.9368 -69.2432 -69.2176 -69.2103 -35.9957 -35.9932 -35.9865 -35.6846
   -35.5817 -35.5357 -35.2250 -35.1934 -35.1834 -35.1471 -35.1439 -35.1213
     1.1580  10.5981  11.3113  11.9148  13.2657  14.5776  14.7281  14.8337
    15.2639  15.3767  15.5838  16.1024  16.3722  16.7654  16.9128  17.0316
    17.4422  17.4784  17.6148  18.1523  18.1979  18.2547  18.9970  19.3340
    22.0571  22.8862

          k = 0.1111 0.2222 0.4444 ( 12540 PWs)   bands (ev):

   -69.9367 -69.2381 -69.2226 -69.2104 -35.9941 -35.9919 -35.9874 -35.6917
   -35.5791 -35.5232 -35.2351 -35.1990 -35.1838 -35.1478 -35.1439 -35.1167
     1.3215  10.1073  11.2412  11.8217  13.7358  14.5293  14.9596  15.0712
    15.3035  15.4787  15.6039  15.8650  16.2991  16.5435  16.8772  16.9677
    17.3027  17.4483  17.7966  18.0506  18.1012  18.2336  18.7432  19.4755
    22.0153  22.8358

          k = 0.1111 0.3333 0.3333 ( 12528 PWs)   bands (ev):

   -69.9367 -69.2385 -69.2191 -69.2135 -35.9965 -35.9932 -35.9866 -35.7047
   -35.5762 -35.5115 -35.2433 -35.1949 -35.1921 -35.1452 -35.1438 -35.1065
     1.3917  10.5242  10.5392  11.7568  13.6361  14.8226  14.9039  15.0688
    15.3299  15.4721  15.5696  15.9051  16.3669  16.6363  16.7528  16.9586
    17.3280  17.3356  17.7956  18.0117  18.1091  18.3398  19.2238  19.4682
    21.3619  23.2565

          k = 0.1111 0.3333 0.4444 ( 12508 PWs)   bands (ev):

   -69.9365 -69.2335 -69.2227 -69.2149 -35.9958 -35.9941 -35.9870 -35.7153
   -35.5732 -35.4974 -35.2535 -35.1992 -35.1933 -35.1450 -35.1438 -35.0988
     1.5577  10.0488  10.4833  11.6624  14.0410  14.7950  15.0911  15.2864
    15.2945  15.5094  15.5624  15.9177  16.2899  16.4463  16.7283  16.9211
    17.2030  17.3110  17.8569  17.9767  18.0307  18.4892  19.0173  19.6596
    20.9541  23.3826

          k = 0.1111 0.4444 0.4444 ( 12499 PWs)   bands (ev):

   -69.9364 -69.2283 -69.2232 -69.2197 -35.9966 -35.9959 -35.9868 -35.7279
   -35.5700 -35.4826 -35.2637 -35.1991 -35.1986 -35.1440 -35.1438 -35.0891
     1.7260  10.0074  10.0094  11.5675  14.3232  14.9817  15.0454  15.2046
    15.5462  15.5519  15.6301  16.0538  16.2561  16.3620  16.5046  16.9240
    17.1742  17.2217  17.6749  17.9348  18.0857  18.8782  19.1707  19.7004
    20.1199  23.7365

          k = 0.2222 0.2222 0.2222 ( 12524 PWs)   bands (ev):

   -69.9369 -69.2451 -69.2129 -69.2129 -35.9967 -35.9967 -35.9855 -35.6960
   -35.5547 -35.5547 -35.2153 -35.1979 -35.1979 -35.1330 -35.1330 -35.1289
     1.1157  11.2709  11.3112  11.3112  13.1133  14.6224  14.6224  14.9421
    14.9421  15.3043  15.7317  16.2796  16.2796  16.9694  16.9694  17.2825
    17.2825  17.2924  17.4274  18.2287  18.2287  18.3820  19.4149  19.4149
    22.2836  23.0622

          k = 0.2222 0.2222 0.3333 ( 12517 PWs)   bands (ev):

   -69.9367 -69.2404 -69.2178 -69.2129 -35.9966 -35.9966 -35.9861 -35.7152
   -35.5520 -35.5287 -35.2293 -35.2109 -35.2006 -35.1330 -35.1252 -35.1194
     1.3490  10.5168  11.1353  11.2355  13.4788  14.7339  14.8920  15.1007
    15.2918  15.2958  15.6689  16.1481  16.2342  16.7243  16.7863  17.1818
    17.1848  17.3775  17.5208  18.1618  18.2200  18.3166  19.2420  19.7643
    22.2489  22.6937

          k = 0.2222 0.2222 0.4444 ( 12513 PWs)   bands (ev):

   -69.9366 -69.2356 -69.2226 -69.2129 -35.9966 -35.9948 -35.9883 -35.7251
   -35.5502 -35.5140 -35.2383 -35.2180 -35.2009 -35.1336 -35.1219 -35.1140
     1.5148  10.0324  11.0317  11.1936  13.8848  14.6647  15.1474  15.1481
    15.4032  15.4925  15.6117  15.9869  16.1837  16.4976  16.7715  17.0066
    17.1469  17.5602  17.7234  18.0969  18.1968  18.2425  18.8111  20.0146
    22.2604  22.3757

          k = 0.2222 0.3333 0.3333 ( 12520 PWs)   bands (ev):

   -69.9366 -69.2363 -69.2191 -69.2157 -35.9983 -35.9975 -35.9880 -35.7390
   -35.5394 -35.5102 -35.2412 -35.2161 -35.2127 -35.1242 -35.1227 -35.1066
     1.5864  10.4047  10.4371  11.0621  13.7834  14.8928  14.9973  15.1537
    15.4038  15.4572  15.8016  16.1027  16.2134  16.6140  16.6343  16.9619
    17.3041  17.3492  17.6462  18.1532  18.2326  18.2824  19.4028  19.9186
    21.6314  22.6893

          k = 0.2222 0.3333 0.4444 ( 12507 PWs)   bands (ev):

   -69.9365 -69.2318 -69.2227 -69.2166 -35.9987 -35.9976 -35.9905 -35.7517
   -35.5361 -35.4960 -35.2495 -35.2220 -35.2140 -35.1237 -35.1188 -35.0988
     1.7557   9.9478  10.3578  10.9828  14.0723  14.8049  15.0273  15.2237
    15.4901  15.7148  15.8752  16.1620  16.1879  16.4234  16.6203  16.8038
    17.2861  17.5123  17.7757  18.1066  18.1698  18.3884  19.0269  20.2484
    21.0540  22.6441

          k = 0.2222 0.4444 0.4444 ( 12518 PWs)   bands (ev):

   -69.9364 -69.2275 -69.2232 -69.2205 -35.9996 -35.9993 -35.9926 -35.7661
   -35.5317 -35.4824 -35.2578 -35.2217 -35.2211 -35.1188 -35.1186 -35.0891
     1.9279   9.8898   9.8971  10.8924  14.2096  14.8979  14.9498  15.0890
    15.6723  16.0015  16.1138  16.2023  16.2635  16.3989  16.5123  16.6596
    17.4069  17.4418  17.8216  17.9832  18.1015  18.7648  19.1472  19.9409
    20.4398  22.9022

          k = 0.3333 0.3333 0.3333 ( 12505 PWs)   bands (ev):

   -69.9365 -69.2329 -69.2191 -69.2191 -36.0004 -36.0004 -35.9916 -35.7667
   -35.5088 -35.5088 -35.2423 -35.2279 -35.2279 -35.1091 -35.1091 -35.1046
     1.8295  10.2647  10.2647  10.4019  13.9571  14.9420  14.9945  14.9945
    15.6694  15.6694  16.1352  16.2181  16.2181  16.5753  16.5753  16.7368
    17.4736  17.5587  17.5587  18.2042  18.2042  18.3425  19.7539  19.7539
    21.9452  21.9452

          k = 0.3333 0.3333 0.4444 ( 12520 PWs)   bands (ev):

   -69.9364 -69.2293 -69.2228 -69.2191 -36.0017 -36.0010 -35.9953 -35.7817
   -35.5079 -35.4919 -35.2473 -35.2360 -35.2293 -35.1080 -35.1013 -35.0974
     2.0035   9.8387  10.1795  10.3015  14.0869  14.8130  14.9324  15.0659
    15.7099  15.9686  16.2185  16.2972  16.3761  16.5446  16.5852  16.7068
    17.4821  17.6857  17.7213  18.2226  18.2881  18.3198  19.0865  20.2694
    21.0594  21.9463

          k = 0.3333 0.4444 0.4444 ( 12510 PWs)   bands (ev):

   -69.9364 -69.2263 -69.2231 -69.2217 -36.0030 -36.0030 -35.9993 -35.7981
   -35.4997 -35.4821 -35.2512 -35.2378 -35.2371 -35.0997 -35.0994 -35.0891
     2.1818   9.7651   9.7773  10.1656  14.0871  14.8237  14.8779  14.9433
    15.8649  16.0632  16.2512  16.2631  16.4466  16.8098  16.8159  16.9892
    17.6312  17.6607  17.7496  18.2081  18.2605  18.5489  19.0742  19.6185
    20.9370  21.9309

          k = 0.4444 0.4444 0.4444 ( 12559 PWs)   bands (ev):

   -69.9363 -69.2248 -69.2231 -69.2231 -36.0052 -36.0052 -36.0038 -35.8158
   -35.4820 -35.4820 -35.2477 -35.2455 -35.2455 -35.0895 -35.0895 -35.0887
     2.3652   9.6881   9.6881   9.7165  14.0123  14.7929  14.8334  14.8334
    16.0116  16.0116  16.2631  16.2631  16.3295  17.4466  17.4466  17.4747
    17.7442  17.7442  17.9041  18.3148  18.3148  18.3176  18.9398  18.9398
    21.2442  21.2442

 ------ SPIN DOWN ----------


          k = 0.0000 0.0000 0.0000 ( 12533 PWs)   bands (ev):

   -67.3636 -67.3028 -67.3028 -66.5337 -33.9868 -33.9868 -33.9868 -33.2307
   -33.2307 -33.2307 -33.1919 -33.1919 -33.1919 -32.6392 -32.6392 -32.6392
     0.4462  11.7276  13.3946  13.3946  13.3946  15.2106  15.2106  15.5334
    15.5334  15.5334  18.0409  18.0409  18.0409  18.7045  18.7045  20.2814
    20.2814  20.2814  20.4080  20.4080  20.5092  20.8706  20.8706  20.8706
    23.0633  23.9612

          k = 0.0000 0.0000 0.1111 ( 12537 PWs)   bands (ev):

   -67.3619 -67.3044 -67.3028 -66.5338 -33.9856 -33.9856 -33.9851 -33.2310
   -33.2296 -33.2296 -33.1931 -33.1931 -33.1923 -32.6421 -32.6404 -32.6404
     0.5151  11.7585  13.0941  13.2811  13.2811  15.2705  15.3099  15.5906
    15.6866  15.6866  17.9632  18.1034  18.1034  18.7110  18.8012  20.2357
    20.2357  20.2816  20.3476  20.3644  20.4463  20.6201  20.6201  20.8706
    23.1046  23.6077

          k = 0.0000 0.0000 0.2222 ( 12549 PWs)   bands (ev):

   -67.3571 -67.3089 -67.3028 -66.5340 -33.9824 -33.9824 -33.9806 -33.2320
   -33.2271 -33.2271 -33.1959 -33.1959 -33.1932 -32.6494 -32.6435 -32.6435
     0.6979  11.5209  12.8546  13.0418  13.0418  15.3356  15.5856  15.7543
    16.0358  16.0358  17.7478  18.2770  18.2770  18.7204  18.8137  19.9886
    19.9886  20.1242  20.1427  20.2199  20.2199  20.2820  20.3765  20.8707
    23.0980  23.2963

          k = 0.0000 0.0000 0.3333 ( 12553 PWs)   bands (ev):

   -67.3503 -67.3155 -67.3027 -66.5342 -33.9789 -33.9789 -33.9756 -33.2331
   -33.2242 -33.2242 -33.1990 -33.1990 -33.1942 -32.6579 -32.6470 -32.6470
     0.9223  10.8625  12.8209  12.8209  13.2717  15.2191  15.9595  15.9953
    16.4086  16.4086  17.4485  18.5179  18.5179  18.5892  18.7024  19.4683
    19.4683  19.7687  19.8262  20.0524  20.0524  20.2826  20.3214  20.8710
    22.9354  23.5437

          k = 0.0000 0.0000 0.4444 ( 12544 PWs)   bands (ev):

   -67.3438 -67.3219 -67.3027 -66.5344 -33.9765 -33.9765 -33.9722 -33.2338
   -33.2224 -33.2224 -33.2010 -33.2010 -33.1948 -32.6634 -32.6493 -32.6493
     1.0802  10.3964  12.6954  12.6954  13.9346  14.7947  16.2268  16.2615
    16.6607  16.6607  17.1793  18.4154  18.6440  18.7635  18.7635  19.0529
    19.0529  19.4979  19.6036  19.9432  19.9432  20.2829  20.2853  20.8711
    22.9014  23.7476

          k = 0.0000 0.1111 0.1111 ( 12557 PWs)   bands (ev):

   -67.3603 -67.3051 -67.3036 -66.5339 -33.9983 -33.9844 -33.9696 -33.2351
   -33.2286 -33.2277 -33.1977 -33.1942 -33.1867 -32.6459 -32.6416 -32.6400
     0.5841  11.7908  12.8620  13.1405  13.1800  15.3466  15.3811  15.6566
    15.8145  15.8153  17.9269  18.1261  18.1577  18.7520  18.7966  20.1516
    20.1883  20.2134  20.2570  20.3571  20.4301  20.5232  20.5310  20.7748
    23.1395  23.8583

          k = 0.0000 0.1111 0.2222 ( 12548 PWs)   bands (ev):

   -67.3556 -67.3092 -67.3039 -66.5341 -34.0076 -33.9813 -33.9534 -33.2422
   -33.2260 -33.2255 -33.2010 -33.1970 -33.1815 -32.6522 -32.6447 -32.6422
     0.7670  11.5461  12.5125  12.9609  13.0783  15.4216  15.6385  15.8234
    16.1192  16.1285  17.7347  18.2826  18.2969  18.6945  18.7298  19.8199
    19.9568  19.9614  20.0873  20.2025  20.3612  20.3776  20.4817  20.7402
    23.2070  23.4011

          k = 0.0000 0.1111 0.3333 ( 12541 PWs)   bands (ev):

   -67.3489 -67.3156 -67.3039 -66.5343 -34.0133 -33.9777 -33.9399 -33.2493
   -33.2231 -33.2230 -33.2032 -33.2001 -33.1782 -32.6582 -32.6483 -32.6460
     0.9917  10.8682  12.4340  12.7535  13.4031  15.3131  16.0057  16.0652
    16.4577  16.4682  17.4441  18.3443  18.4937  18.5275  18.6582  19.4836
    19.5000  19.7218  19.8937  19.9371  20.2478  20.3626  20.3843  20.7409
    23.1201  23.4630

          k = 0.0000 0.1111 0.4444 ( 12514 PWs)   bands (ev):

   -67.3425 -67.3218 -67.3039 -66.5344 -34.0158 -33.9754 -33.9321 -33.2536
   -33.2213 -33.2211 -33.2046 -33.2021 -33.1768 -32.6616 -32.6506 -32.6489
     1.1499  10.3978  12.3629  12.6342  14.0097  14.9058  16.3025  16.3039
    16.6880  16.7029  17.1801  18.1820  18.3306  18.7854  18.7915  19.0849
    19.3044  19.5822  19.6172  19.8226  20.1428  20.3059  20.3644  20.7425
    23.1029  23.5992

          k = 0.0000 0.2222 0.2222 ( 12528 PWs)   bands (ev):

   -67.3514 -67.3110 -67.3062 -66.5342 -34.0290 -33.9783 -33.9268 -33.2583
   -33.2257 -33.2231 -33.2047 -33.1998 -33.1671 -32.6561 -32.6479 -32.6421
     0.9504  11.4991  11.8222  12.7777  13.2516  15.6150  15.7740  15.9972
    16.3296  16.3636  17.6309  18.2673  18.3694  18.5060  18.5785  19.6836
    19.7679  19.8179  19.9187  20.0932  20.4436  20.4473  20.5155  20.6846
    23.1190  23.9532

          k = 0.0000 0.2222 0.3333 ( 12527 PWs)   bands (ev):

   -67.3452 -67.3160 -67.3071 -66.5344 -34.0440 -33.9748 -33.9058 -33.2720
   -33.2255 -33.2199 -33.2090 -33.2030 -33.1559 -32.6578 -32.6516 -32.6446
     1.1762  10.8718  11.6510  12.5968  13.6634  15.5697  16.0778  16.2380
    16.5923  16.6215  17.4051  17.9795  18.2657  18.5836  18.5885  19.5183
    19.5366  19.7117  19.7449  19.8915  20.4105  20.4109  20.4837  20.6810
    23.0114  23.7343

          k = 0.0000 0.2222 0.4444 ( 12515 PWs)   bands (ev):

   -67.3390 -67.3217 -67.3073 -66.5345 -34.0517 -33.9726 -33.8941 -33.2796
   -33.2243 -33.2178 -33.2128 -33.2050 -33.1500 -32.6572 -32.6540 -32.6478
     1.3354  10.3960  11.6140  12.4902  14.2181  15.2000  16.3417  16.4881
    16.7632  16.8470  17.1757  17.7079  18.1341  18.6115  18.8659  19.1778
    19.3753  19.6215  19.6726  19.8136  20.3953  20.4156  20.4751  20.5141
    23.0487  23.6571

          k = 0.0000 0.3333 0.3333 ( 12518 PWs)   bands (ev):

   -67.3396 -67.3176 -67.3108 -66.5345 -34.0664 -33.9715 -33.8796 -33.2899
   -33.2278 -33.2163 -33.2161 -33.2062 -33.1382 -32.6555 -32.6554 -32.6448
     1.4037  10.8319  10.8968  12.4374  14.0754  15.8683  16.0259  16.4607
    16.7895  16.7990  17.2930  17.6316  18.0634  18.5077  18.7327  19.3587
    19.5305  19.5344  19.7313  19.9248  20.1458  20.5072  20.5134  20.8573
    22.5355  24.3133

          k = 0.0000 0.3333 0.4444 ( 12517 PWs)   bands (ev):

   -67.3338 -67.3216 -67.3125 -66.5346 -34.0781 -33.9694 -33.8652 -33.2996
   -33.2281 -33.2222 -33.2141 -33.2082 -33.1286 -32.6579 -32.6521 -32.6469
     1.5646  10.3852  10.8476  12.3419  14.5567  15.6032  16.2203  16.6895
    16.8593  17.0664  17.1526  17.3659  17.9797  18.4024  18.9743  19.2074
    19.2664  19.5027  19.5849  20.0347  20.0959  20.5254  20.5912  20.7761
    22.3308  24.3166

          k = 0.0000 0.4444 0.4444 ( 12492 PWs)   bands (ev):

   -67.3278 -67.3220 -67.3180 -66.5347 -34.0921 -33.9673 -33.8495 -33.3102
   -33.2303 -33.2286 -33.2116 -33.2104 -33.1170 -32.6604 -32.6484 -32.6467
     1.7268  10.3716  10.3756  12.2521  14.9224  15.9621  15.9822  16.8459
    16.9115  16.9141  17.1165  17.5506  17.9118  18.1332  19.0468  19.0618
    19.3043  19.4723  19.5335  19.7151  20.2626  20.5382  20.7783  20.8774
    21.8695  24.8265

          k = 0.1111 0.1111 0.1111 ( 12563 PWs)   bands (ev):

   -67.3587 -67.3051 -67.3051 -66.5339 -34.0116 -33.9685 -33.9685 -33.2360
   -33.2307 -33.2307 -33.1956 -33.1956 -33.1828 -32.6496 -32.6409 -32.6409
     0.6531  11.8236  12.7770  12.7770  13.1934  15.4347  15.4347  15.7977
    15.7977  15.9797  17.8992  18.1706  18.1706  18.7704  18.7704  20.0055
    20.1165  20.1420  20.1420  20.4003  20.4003  20.4019  20.6831  20.6831
    23.1809  24.0625

          k = 0.1111 0.1111 0.2222 ( 12529 PWs)   bands (ev):

   -67.3542 -67.3094 -67.3051 -66.5341 -34.0259 -33.9657 -33.9477 -33.2435
   -33.2380 -33.2287 -33.1955 -33.1928 -33.1771 -32.6554 -32.6432 -32.6427
     0.8362  11.5661  12.4034  12.5860  13.2014  15.5070  15.6956  15.9212
    16.1317  16.2322  17.7283  18.2744  18.2893  18.6800  18.6802  19.6473
    19.7881  19.9247  19.9926  20.2986  20.4490  20.4711  20.5379  20.7272
    23.2584  23.5522

          k = 0.1111 0.1111 0.3333 ( 12526 PWs)   bands (ev):

   -67.3477 -67.3157 -67.3051 -66.5343 -34.0356 -33.9625 -33.9306 -33.2516
   -33.2456 -33.2240 -33.1938 -33.1925 -33.1729 -32.6593 -32.6472 -32.6459
     1.0613  10.8679  12.3697  12.3989  13.5154  15.4058  16.0630  16.1446
    16.4744  16.5166  17.4468  18.2329  18.3236  18.6233  18.6583  19.2549
    19.5473  19.7154  19.8095  20.1298  20.3505  20.3762  20.5337  20.6670
    23.2542  23.4787

          k = 0.1111 0.1111 0.4444 ( 12521 PWs)   bands (ev):

   -67.3414 -67.3218 -67.3050 -66.5345 -34.0405 -33.9603 -33.9208 -33.2564
   -33.2503 -33.2199 -33.1939 -33.1923 -33.1707 -32.6602 -32.6519 -32.6476
     1.2199  10.3940  12.2892  12.3293  14.0812  15.0140  16.3633  16.3820
    16.6152  16.8200  17.1838  17.9895  18.2135  18.7870  18.8090  19.0182
    19.2798  19.6462  19.6872  20.0047  20.1064  20.3068  20.5541  20.6459
    23.2674  23.5688

          k = 0.1111 0.2222 0.2222 ( 12537 PWs)   bands (ev):

   -67.3501 -67.3110 -67.3074 -66.5343 -34.0489 -33.9568 -33.9261 -33.2588
   -33.2402 -33.2390 -33.1906 -33.1875 -33.1657 -32.6593 -32.6450 -32.6423
     1.0200  11.5141  11.7663  12.3869  13.3760  15.7044  15.8408  16.1108
    16.3311  16.3847  17.6415  18.2106  18.2627  18.5890  18.6015  19.4315
    19.5362  19.8334  19.8426  20.2436  20.4421  20.4843  20.7323  20.8284
    23.2302  23.9473

          k = 0.1111 0.2222 0.3333 ( 12525 PWs)   bands (ev):

   -67.3441 -67.3160 -67.3081 -66.5344 -34.0659 -33.9528 -33.9044 -33.2734
   -33.2498 -33.2379 -33.1877 -33.1853 -33.1550 -32.6603 -32.6480 -32.6442
     1.2464  10.8574  11.6115  12.2609  13.7620  15.6578  16.1554  16.3302
    16.5269  16.6651  17.4260  17.9405  18.1448  18.6004  18.6606  19.2781
    19.3043  19.7069  19.8062  20.0894  20.3802  20.4332  20.7261  20.8361
    23.1212  23.7696

          k = 0.1111 0.2222 0.4444 ( 12540 PWs)   bands (ev):

   -67.3381 -67.3217 -67.3082 -66.5345 -34.0747 -33.9506 -33.8920 -33.2815
   -33.2557 -33.2367 -33.1860 -33.1851 -33.1492 -32.6575 -32.6525 -32.6462
     1.4062  10.3800  11.5685  12.1834  14.2830  15.2976  16.4053  16.5684
    16.6592  16.9774  17.1954  17.6108  18.0537  18.6266  18.8409  19.0775
    19.1792  19.7029  19.8059  19.9539  20.3194  20.3829  20.4879  20.8717
    23.1470  23.7262

          k = 0.1111 0.3333 0.3333 ( 12528 PWs)   bands (ev):

   -67.3387 -67.3176 -67.3116 -66.5346 -34.0890 -33.9484 -33.8792 -33.2922
   -33.2526 -33.2491 -33.1847 -33.1829 -33.1379 -32.6592 -32.6492 -32.6441
     1.4750  10.8123  10.8546  12.1296  14.1547  15.9504  16.0732  16.5537
    16.6811  16.8730  17.3267  17.6478  17.9841  18.5071  18.7404  19.0986
    19.3923  19.5425  19.9238  19.9247  20.2616  20.4110  20.8982  20.9777
    22.5959  24.2109

          k = 0.1111 0.3333 0.4444 ( 12508 PWs)   bands (ev):

   -67.3331 -67.3216 -67.3131 -66.5346 -34.1013 -33.9461 -33.8648 -33.3023
   -33.2584 -33.2514 -33.1832 -33.1824 -33.1285 -32.6573 -32.6497 -32.6455
     1.6367  10.3567  10.8090  12.0486  14.6042  15.6784  16.2441  16.7771
    16.8626  17.0623  17.1774  17.4108  17.9282  18.4036  18.8154  18.9911
    19.3557  19.5849  19.7342  19.9964  20.1408  20.5092  20.7318  21.0727
    22.3518  24.2446

          k = 0.1111 0.4444 0.4444 ( 12499 PWs)   bands (ev):

   -67.3275 -67.3220 -67.3182 -66.5347 -34.1156 -33.9438 -33.8495 -33.3134
   -33.2605 -33.2598 -33.1818 -33.1816 -33.1170 -32.6578 -32.6467 -32.6455
     1.8000  10.3371  10.3386  11.9660  14.9331  15.9994  16.0392  16.8468
    16.9392  17.0013  17.1563  17.6199  17.8809  18.1381  18.6865  19.0342
    19.4388  19.5799  19.6273  19.9198  19.9907  20.7269  20.8651  21.1309
    21.8234  24.5854

          k = 0.2222 0.2222 0.2222 ( 12524 PWs)   bands (ev):

   -67.3464 -67.3109 -67.3109 -66.5344 -34.0777 -33.9241 -33.9241 -33.2613
   -33.2613 -33.2586 -33.1746 -33.1746 -33.1597 -32.6623 -32.6427 -32.6427
     1.2051  11.5056  11.6331  11.6331  13.6117  15.9656  15.9656  16.3809
    16.3960  16.3960  17.6133  18.0859  18.0859  18.6334  18.6334  19.2214
    19.2255  19.7409  19.7409  20.3380  20.4369  20.4369  21.0800  21.0800
    23.3971  23.8153

          k = 0.2222 0.2222 0.3333 ( 12517 PWs)   bands (ev):

   -67.3409 -67.3162 -67.3109 -66.5345 -34.0997 -33.9218 -33.8974 -33.2783
   -33.2760 -33.2614 -33.1696 -33.1641 -33.1502 -32.6613 -32.6442 -32.6432
     1.4335  10.8142  11.4940  11.5402  14.0010  15.8917  16.3473  16.3800
    16.5658  16.7437  17.4588  17.8192  17.9646  18.6055  18.6849  18.9743
    19.2131  19.6809  19.7893  20.2382  20.3907  20.4168  20.9556  21.2852
    23.3372  23.6137

          k = 0.2222 0.2222 0.4444 ( 12513 PWs)   bands (ev):

   -67.3354 -67.3216 -67.3109 -66.5346 -34.1114 -33.9203 -33.8827 -33.2878
   -33.2847 -33.2625 -33.1678 -33.1592 -33.1442 -32.6568 -32.6490 -32.6435
     1.5951  10.3372  11.4091  11.5219  14.4638  15.5468  16.4097  16.6962
    16.7869  17.0772  17.2509  17.4544  17.9242  18.6152  18.7201  18.7984
    19.2516  19.7832  19.8993  20.1208  20.3446  20.3566  20.5388  21.3916
    23.3745  23.4639

          k = 0.2222 0.3333 0.3333 ( 12520 PWs)   bands (ev):

   -67.3362 -67.3176 -67.3140 -66.5346 -34.1265 -33.9094 -33.8783 -33.2982
   -33.2826 -33.2787 -33.1586 -33.1568 -33.1370 -32.6587 -32.6433 -32.6423
     1.6650  10.7516  10.7597  11.4196  14.3573  16.1250  16.1725  16.5858
    16.7954  16.9205  17.4225  17.6825  17.8429  18.5145  18.6473  18.7608
    19.3524  19.6420  19.8903  20.1760  20.3801  20.3972  21.0667  21.4858
    22.7511  23.7077

          k = 0.2222 0.3333 0.4444 ( 12507 PWs)   bands (ev):

   -67.3313 -67.3215 -67.3149 -66.5346 -34.1410 -33.9065 -33.8636 -33.3093
   -33.2913 -33.2831 -33.1563 -33.1520 -33.1280 -32.6542 -32.6451 -32.6420
     1.8293  10.2852  10.7136  11.3578  14.7230  15.8567  16.2686  16.8383
    17.0105  17.0608  17.3085  17.5570  17.8457  18.4188  18.5335  18.7258
    19.4677  19.7471  19.9623  20.0608  20.3209  20.4540  20.7319  21.6893
    22.3540  23.6879

          k = 0.2222 0.4444 0.4444 ( 12518 PWs)   bands (ev):

   -67.3266 -67.3219 -67.3191 -66.5347 -34.1570 -33.9026 -33.8493 -33.3213
   -33.2951 -33.2944 -33.1508 -33.1506 -33.1168 -32.6512 -32.6427 -32.6422
     1.9960  10.2478  10.2519  11.2849  14.9443  16.0836  16.1699  16.6778
    17.2032  17.2398  17.3382  17.7451  17.8431  18.1947  18.3672  18.7273
    19.6939  19.7348  19.8889  19.9596  20.2297  20.6462  20.8147  21.6134
    21.8562  23.8901

          k = 0.3333 0.3333 0.3333 ( 12505 PWs)   bands (ev):

   -67.3325 -67.3175 -67.3175 -66.5346 -34.1571 -33.8772 -33.8772 -33.3059
   -33.3059 -33.3000 -33.1405 -33.1405 -33.1334 -32.6543 -32.6403 -32.6403
     1.9011  10.6409  10.6409  10.7350  14.6291  16.0838  16.4464  16.4464
    17.0957  17.0957  17.5101  17.7470  17.7470  18.4503  18.5254  18.5254
    19.5063  19.8513  19.8513  20.2894  20.3759  20.3759  21.3673  21.3673
    22.9688  22.9688

          k = 0.3333 0.3333 0.4444 ( 12520 PWs)   bands (ev):

   -67.3285 -67.3215 -67.3175 -66.5346 -34.1738 -33.8765 -33.8595 -33.3185
   -33.3146 -33.3076 -33.1378 -33.1314 -33.1257 -32.6488 -32.6409 -32.6389
     2.0693  10.2049  10.5717  10.6654  14.8542  16.0352  16.2875  16.6327
    17.3154  17.3325  17.5107  17.7314  17.8241  18.2897  18.4212  18.5171
    19.6666  19.9041  20.0201  20.2098  20.3905  20.4080  20.7759  21.7174
    22.3420  23.1529

          k = 0.3333 0.4444 0.4444 ( 12510 PWs)   bands (ev):

   -67.3252 -67.3219 -67.3203 -66.5346 -34.1918 -33.8680 -33.8491 -33.3301
   -33.3215 -33.3207 -33.1286 -33.1282 -33.1167 -32.6436 -32.6385 -32.6383
     2.2409  10.1489  10.1584  10.5576  14.9331  16.1686  16.2821  16.4794
    17.5926  17.5995  17.6671  17.8600  17.8664  18.1333  18.3000  18.4924
    19.8637  19.9510  20.0416  20.1413  20.4196  20.4852  20.7226  21.2311
    22.3660  23.1195

          k = 0.4444 0.4444 0.4444 ( 12559 PWs)   bands (ev):

   -67.3237 -67.3219 -67.3219 -66.5346 -34.2109 -33.8490 -33.8490 -33.3358
   -33.3358 -33.3348 -33.1171 -33.1171 -33.1162 -32.6381 -32.6360 -32.6360
     2.4166  10.0867  10.0867  10.1092  14.9149  16.2386  16.3299  16.3299
    17.8948  17.8948  17.9810  17.9810  17.9853  18.0022  18.3663  18.3663
    20.0130  20.0709  20.0709  20.2603  20.3445  20.3445  20.7348  20.7348
    22.6686  22.6686

     the Fermi energy is    18.7319 ev

!    total energy              =   -1345.17093605 Ry
     Harris-Foulkes estimate   =   -1345.17093605 Ry
     estimated scf accuracy    <          6.2E-09 Ry

     total all-electron energy =    -10291.772571 Ry

     The total energy is the sum of the following terms:

     one-electron contribution =    -446.73705208 Ry
     hartree contribution      =     269.20183808 Ry
     xc contribution           =    -117.08707762 Ry
     ewald contribution        =    -711.61403732 Ry
     one-center paw contrib.   =    -338.93469681 Ry
     smearing contrib. (-TS)   =       0.00008970 Ry

     total magnetization       =     7.68 Bohr mag/cell
     absolute magnetization    =     8.03 Bohr mag/cell

     convergence has been achieved in  26 iterations

     Forces acting on atoms (Ry/au):


     negative rho (up, down):  0.000E+00 1.927E-04
     atom    1 type  1   force =     0.00000000    0.00000000    0.00000000
     atom    2 type  1   force =     0.00000000    0.00000000    0.00000000
     atom    3 type  1   force =     0.00000000    0.00000000    0.00000000
     atom    4 type  1   force =     0.00000000    0.00000000    0.00000000
     atom    5 type  2   force =     0.00000000    0.00000000    0.00000000

     Total force =     0.000000     Total SCF correction =     0.000000


     entering subroutine stress ...


     negative rho (up, down):  0.000E+00 1.927E-04
          total   stress  (Ry/bohr**3)                   (kbar)     P=  149.23
   0.00101446   0.00000000   0.00000000        149.23      0.00      0.00
   0.00000000   0.00101446   0.00000000          0.00    149.23      0.00
   0.00000000   0.00000000   0.00101446          0.00      0.00    149.23


     Writing output data file config.save
 
     init_run     :      9.18s CPU      9.52s WALL (       1 calls)
     electrons    :    604.63s CPU    618.70s WALL (       1 calls)
     forces       :      2.17s CPU      2.27s WALL (       1 calls)
     stress       :      7.74s CPU      7.94s WALL (       1 calls)

     Called by init_run:
     wfcinit      :      7.31s CPU      7.51s WALL (       1 calls)
     potinit      :      0.79s CPU      0.82s WALL (       1 calls)

     Called by electrons:
     c_bands      :    452.49s CPU    460.35s WALL (      26 calls)
     sum_band     :    126.14s CPU    130.19s WALL (      26 calls)
     v_of_rho     :      6.28s CPU      6.38s WALL (      27 calls)
     newd         :      8.09s CPU      9.77s WALL (      27 calls)
     mix_rho      :      1.27s CPU      1.28s WALL (      26 calls)

     Called by c_bands:
     init_us_2    :      7.47s CPU      7.63s WALL (    3850 calls)
     cegterg      :    426.37s CPU    433.81s WALL (    1820 calls)

     Called by sum_band:
     sum_band:bec :      0.07s CPU      0.07s WALL (    1820 calls)
     addusdens    :     22.53s CPU     24.56s WALL (      26 calls)

     Called by *egterg:
     h_psi        :    331.35s CPU    337.26s WALL (    6323 calls)
     s_psi        :     11.72s CPU     11.96s WALL (    6323 calls)
     g_psi        :      2.08s CPU      2.11s WALL (    4433 calls)
     cdiaghg      :     19.24s CPU     19.54s WALL (    6253 calls)

     Called by h_psi:
     add_vuspsi   :     11.51s CPU     11.75s WALL (    6323 calls)

     General routines
     calbec       :     18.99s CPU     19.43s WALL (    8493 calls)
     fft          :      4.74s CPU      4.83s WALL (     871 calls)
     ffts         :      0.12s CPU      0.12s WALL (     106 calls)
     fftw         :    248.72s CPU    253.29s WALL (  443846 calls)
     interpolate  :      0.85s CPU      0.86s WALL (     106 calls)
     davcio       :      0.13s CPU      0.42s WALL (      70 calls)
 
     Parallel routines
     fft_scatter  :    117.70s CPU    120.13s WALL (  444823 calls)

     PAW routines
     PAW_pot      :     10.59s CPU     10.95s WALL (      27 calls)
     PAW_symme    :      0.04s CPU      0.04s WALL (      53 calls)
 
     PWSCF        : 10m24.44s CPU    10m39.64s WALL

 
   This run was terminated on:  16: 3: 1  27Oct2020            

=------------------------------------------------------------------------------=
   JOB DONE.
=------------------------------------------------------------------------------=
