
     Program PWSCF v.5.2.0 starts on 20Nov2020 at 17:57: 6 

     This program is part of the open-source Quantum ESPRESSO suite
     for quantum simulation of materials; please cite
         "P. Giannozzi et al., J. Phys.:Condens. Matter 21 395502 (2009);
          URL http://www.quantum-espresso.org", 
     in publications or presentations arising from this work. More details at
     http://www.quantum-espresso.org/quote

     Parallel version (MPI), running on    24 processors
     R & G space division:  proc/nbgrp/npool/nimage =      24
     Reading input from rerun/config.in

     Current dimensions of program PWSCF are:
     Max number of different atomic species (ntypx) = 10
     Max number of k-points (npk) =  40000
     Max angular momentum in pseudopotentials (lmaxx) =  3
               file Fe.pbe-spn-kjpaw_psl.0.2.1.UPF: wavefunction(s)  3D renormalized

     Subspace diagonalization in iterative solution of the eigenvalue problem:
     scalapack distributed-memory algorithm (size of sub-group:  3*  3 procs)

     Found symmetry operation: I + (  0.5000 -0.5000  0.0000)
     This is a supercell, fractional translations are disabled
 
     Parallelization info
     --------------------
     sticks:   dense  smooth     PW     G-vecs:    dense   smooth      PW
     Min         314     179     48                29390    12687    1788
     Max         315     180     49                29393    12712    1793
     Sum        7555    4315   1173               705411   304773   42995
 
     Generating pointlists ...
     new r_m :   0.1448 (alat units)  1.4343 (a.u.) for type    1
     new r_m :   0.1448 (alat units)  1.4343 (a.u.) for type    2


     bravais-lattice index     =            0
     lattice parameter (alat)  =       9.9038  a.u.
     unit-cell volume          =    1361.4949 (a.u.)^3
     number of atoms/cell      =           20
     number of atomic types    =            2
     number of electrons       =       276.00
     number of Kohn-Sham states=          166
     kinetic-energy cutoff     =     140.0000  Ry
     charge density cutoff     =     980.0000  Ry
     convergence threshold     =      4.0E-09
     mixing beta               =       0.4000
     number of iterations used =            8  plain     mixing
     Exchange-correlation      = PBE ( 1  4  3  4 0 0)
     nstep                     =           50


     celldm(1)=   9.903828  celldm(2)=   0.000000  celldm(3)=   0.000000
     celldm(4)=   0.000000  celldm(5)=   0.000000  celldm(6)=   0.000000

     crystal axes: (cart. coord. in units of alat)
               a(1) = (   1.000000   0.000000   0.000000 )  
               a(2) = (   0.000000   0.985981   0.000000 )  
               a(3) = (   0.000000   0.000000   1.421471 )  

     reciprocal axes: (cart. coord. in units 2 pi/alat)
               b(1) = (  1.000000  0.000000  0.000000 )  
               b(2) = (  0.000000  1.014218  0.000000 )  
               b(3) = (  0.000000  0.000000  0.703496 )  


     PseudoPot. # 1 for Fe read from file:
     ./pseudo/Fe.pbe-spn-kjpaw_psl.0.2.1.UPF
     MD5 check sum: e86618425769142926afa95317d90200
     Pseudo is Projector augmented-wave + core cor, Zval = 16.0
     Generated using "atomic" code by A. Dal Corso  v.5.0.99 svn rev. 10869
     Shape of augmentation charge: PSQ
     Using radial grid of 1191 points,  6 beta functions with: 
                l(1) =   0
                l(2) =   0
                l(3) =   1
                l(4) =   1
                l(5) =   2
                l(6) =   2
     Q(r) pseudized with 0 coefficients 


     PseudoPot. # 2 for  N read from file:
     ./pseudo/N.pbe-n-radius_5.UPF
     MD5 check sum: 16739722b17309cd8fe442a2ace49922
     Pseudo is Ultrasoft + core correction, Zval =  5.0
     Generated using "atomic" code by A. Dal Corso  v.5.1
     Using radial grid of 1085 points,  4 beta functions with: 
                l(1) =   0
                l(2) =   0
                l(3) =   1
                l(4) =   1
     Q(r) pseudized with 0 coefficients 


     atomic species   valence    mass     pseudopotential
        Fe            16.00    55.84700     Fe( 1.00)
        N              5.00    14.00670      N( 1.00)

     Starting magnetic structure 
     atomic species   magnetization
        Fe           0.312
        N            0.100

      4 Sym. Ops., with inversion, found


                                    s                        frac. trans.

      isym =  1     identity                                     

 cryst.   s( 1) = (     1          0          0      )
                  (     0          1          0      )
                  (     0          0          1      )

 cart.    s( 1) = (  1.0000000  0.0000000  0.0000000 )
                  (  0.0000000  1.0000000  0.0000000 )
                  (  0.0000000  0.0000000  1.0000000 )


      isym =  2     180 deg rotation - cart. axis [1,0,0]        

 cryst.   s( 2) = (     1          0          0      )
                  (     0         -1          0      )
                  (     0          0         -1      )

 cart.    s( 2) = (  1.0000000  0.0000000  0.0000000 )
                  (  0.0000000 -1.0000000  0.0000000 )
                  (  0.0000000  0.0000000 -1.0000000 )


      isym =  3     inversion                                    

 cryst.   s( 3) = (    -1          0          0      )
                  (     0         -1          0      )
                  (     0          0         -1      )

 cart.    s( 3) = ( -1.0000000  0.0000000  0.0000000 )
                  (  0.0000000 -1.0000000  0.0000000 )
                  (  0.0000000  0.0000000 -1.0000000 )


      isym =  4     inv. 180 deg rotation - cart. axis [1,0,0]   

 cryst.   s( 4) = (    -1          0          0      )
                  (     0          1          0      )
                  (     0          0          1      )

 cart.    s( 4) = ( -1.0000000  0.0000000  0.0000000 )
                  (  0.0000000  1.0000000  0.0000000 )
                  (  0.0000000  0.0000000  1.0000000 )


     point group C_2h (2/m) 
     there are  4 classes
     the character table:

       E     C2    i     s_h  
A_g    1.00  1.00  1.00  1.00
B_g    1.00 -1.00  1.00 -1.00
A_u    1.00  1.00 -1.00 -1.00
B_u    1.00 -1.00 -1.00  1.00

     the symmetry operations in each class and the name of the first element:

     E        1
          identity                                               
     C2       2
          180 deg rotation - cart. axis [1,0,0]                  
     i        3
          inversion                                              
     s_h      4
          inv. 180 deg rotation - cart. axis [1,0,0]             

   Cartesian axes

     site n.     atom                  positions (alat units)
         1           Fe  tau(   1) = (   0.7500000   0.2867530   0.3553678  )
         2           Fe  tau(   2) = (   0.7500000   0.6992284   1.0661034  )
         3           Fe  tau(   3) = (   0.2500000   0.2867530   0.3553678  )
         4           Fe  tau(   4) = (   0.2500000   0.6992284   1.0661034  )
         5           Fe  tau(   5) = (   0.2500000   0.7797436   0.3553678  )
         6           Fe  tau(   6) = (   0.2500000   0.2062377   1.0661034  )
         7           Fe  tau(   7) = (   0.7500000   0.7797436   0.3553678  )
         8           Fe  tau(   8) = (   0.7500000   0.2062377   1.0661034  )
         9           Fe  tau(   9) = (   0.0000000   0.4929907   0.0000000  )
        10           Fe  tau(  10) = (   0.0000000   0.4929907   0.7107356  )
        11           Fe  tau(  11) = (   0.5000000   0.0000000   0.0000000  )
        12           Fe  tau(  12) = (   0.5000000   0.0000000   0.7107356  )
        13           Fe  tau(  13) = (   0.0000000   0.0000000   0.0000000  )
        14           Fe  tau(  14) = (   0.0000000   0.0000000   0.7107356  )
        15           Fe  tau(  15) = (   0.5000000   0.4929907   0.0000000  )
        16           Fe  tau(  16) = (   0.5000000   0.4929907   0.7107356  )
        17           N   tau(  17) = (   0.0000000   0.5332483   0.3553678  )
        18           N   tau(  18) = (   0.0000000   0.4527331   1.0661034  )
        19           N   tau(  19) = (   0.5000000   0.0402576   0.3553678  )
        20           N   tau(  20) = (   0.5000000   0.9457237   1.0661034  )

   Crystallographic axes

     site n.     atom                  positions (cryst. coord.)
         1           Fe  tau(   1) = (  0.7500000  0.2908300  0.2500000  )
         2           Fe  tau(   2) = (  0.7500000  0.7091700  0.7500000  )
         3           Fe  tau(   3) = (  0.2500000  0.2908300  0.2500000  )
         4           Fe  tau(   4) = (  0.2500000  0.7091700  0.7500000  )
         5           Fe  tau(   5) = (  0.2500000  0.7908300  0.2500000  )
         6           Fe  tau(   6) = (  0.2500000  0.2091700  0.7500000  )
         7           Fe  tau(   7) = (  0.7500000  0.7908300  0.2500000  )
         8           Fe  tau(   8) = (  0.7500000  0.2091700  0.7500000  )
         9           Fe  tau(   9) = (  0.0000000  0.5000000  0.0000000  )
        10           Fe  tau(  10) = (  0.0000000  0.5000000  0.5000000  )
        11           Fe  tau(  11) = (  0.5000000  0.0000000  0.0000000  )
        12           Fe  tau(  12) = (  0.5000000  0.0000000  0.5000000  )
        13           Fe  tau(  13) = (  0.0000000  0.0000000  0.0000000  )
        14           Fe  tau(  14) = (  0.0000000  0.0000000  0.5000000  )
        15           Fe  tau(  15) = (  0.5000000  0.5000000  0.0000000  )
        16           Fe  tau(  16) = (  0.5000000  0.5000000  0.5000000  )
        17           N   tau(  17) = (  0.0000000  0.5408300  0.2500000  )
        18           N   tau(  18) = (  0.0000000  0.4591700  0.7500000  )
        19           N   tau(  19) = (  0.5000000  0.0408300  0.2500000  )
        20           N   tau(  20) = (  0.5000000  0.9591700  0.7500000  )

     number of k points=   128  Marzari-Vanderbilt smearing, width (Ry)=  0.0147
                       cart. coord. in units 2pi/alat
        k(    1) = (   0.0000000   0.0000000   0.0000000), wk =   0.0055556
        k(    2) = (   0.0000000   0.0000000   0.1406993), wk =   0.0111111
        k(    3) = (   0.0000000   0.0000000   0.2813986), wk =   0.0111111
        k(    4) = (   0.0000000   0.1690363   0.0000000), wk =   0.0111111
        k(    5) = (   0.0000000   0.1690363   0.1406993), wk =   0.0111111
        k(    6) = (   0.0000000   0.1690363   0.2813986), wk =   0.0111111
        k(    7) = (   0.0000000   0.3380727   0.0000000), wk =   0.0111111
        k(    8) = (   0.0000000   0.3380727   0.1406993), wk =   0.0111111
        k(    9) = (   0.0000000   0.3380727   0.2813986), wk =   0.0111111
        k(   10) = (   0.0000000  -0.5071090   0.0000000), wk =   0.0055556
        k(   11) = (   0.0000000  -0.5071090   0.1406993), wk =   0.0111111
        k(   12) = (   0.0000000  -0.5071090   0.2813986), wk =   0.0111111
        k(   13) = (   0.1666667   0.0000000   0.0000000), wk =   0.0111111
        k(   14) = (   0.1666667   0.0000000   0.1406993), wk =   0.0222222
        k(   15) = (   0.1666667   0.0000000   0.2813986), wk =   0.0222222
        k(   16) = (   0.1666667   0.1690363   0.0000000), wk =   0.0222222
        k(   17) = (   0.1666667   0.1690363   0.1406993), wk =   0.0222222
        k(   18) = (   0.1666667   0.1690363   0.2813986), wk =   0.0222222
        k(   19) = (   0.1666667   0.3380727   0.0000000), wk =   0.0222222
        k(   20) = (   0.1666667   0.3380727   0.1406993), wk =   0.0222222
        k(   21) = (   0.1666667   0.3380727   0.2813986), wk =   0.0222222
        k(   22) = (   0.1666667  -0.5071090   0.0000000), wk =   0.0111111
        k(   23) = (   0.1666667  -0.5071090   0.1406993), wk =   0.0222222
        k(   24) = (   0.1666667  -0.5071090   0.2813986), wk =   0.0222222
        k(   25) = (   0.3333333   0.0000000   0.0000000), wk =   0.0111111
        k(   26) = (   0.3333333   0.0000000   0.1406993), wk =   0.0222222
        k(   27) = (   0.3333333   0.0000000   0.2813986), wk =   0.0222222
        k(   28) = (   0.3333333   0.1690363   0.0000000), wk =   0.0222222
        k(   29) = (   0.3333333   0.1690363   0.1406993), wk =   0.0222222
        k(   30) = (   0.3333333   0.1690363   0.2813986), wk =   0.0222222
        k(   31) = (   0.3333333   0.3380727   0.0000000), wk =   0.0222222
        k(   32) = (   0.3333333   0.3380727   0.1406993), wk =   0.0222222
        k(   33) = (   0.3333333   0.3380727   0.2813986), wk =   0.0222222
        k(   34) = (   0.3333333  -0.5071090   0.0000000), wk =   0.0111111
        k(   35) = (   0.3333333  -0.5071090   0.1406993), wk =   0.0222222
        k(   36) = (   0.3333333  -0.5071090   0.2813986), wk =   0.0222222
        k(   37) = (  -0.5000000   0.0000000   0.0000000), wk =   0.0055556
        k(   38) = (  -0.5000000   0.0000000   0.1406993), wk =   0.0111111
        k(   39) = (  -0.5000000   0.0000000   0.2813986), wk =   0.0111111
        k(   40) = (  -0.5000000   0.1690363   0.0000000), wk =   0.0111111
        k(   41) = (  -0.5000000   0.1690363   0.1406993), wk =   0.0111111
        k(   42) = (  -0.5000000   0.1690363   0.2813986), wk =   0.0111111
        k(   43) = (  -0.5000000   0.3380727   0.0000000), wk =   0.0111111
        k(   44) = (  -0.5000000   0.3380727   0.1406993), wk =   0.0111111
        k(   45) = (  -0.5000000   0.3380727   0.2813986), wk =   0.0111111
        k(   46) = (  -0.5000000  -0.5071090   0.0000000), wk =   0.0055556
        k(   47) = (  -0.5000000  -0.5071090   0.1406993), wk =   0.0111111
        k(   48) = (  -0.5000000  -0.5071090   0.2813986), wk =   0.0111111
        k(   49) = (   0.0000000   0.1690363  -0.1406993), wk =   0.0111111
        k(   50) = (   0.0000000   0.1690363  -0.2813986), wk =   0.0111111
        k(   51) = (   0.0000000   0.3380727  -0.1406993), wk =   0.0111111
        k(   52) = (   0.0000000   0.3380727  -0.2813986), wk =   0.0111111
        k(   53) = (  -0.1666667   0.1690363  -0.1406993), wk =   0.0222222
        k(   54) = (  -0.1666667   0.1690363  -0.2813986), wk =   0.0222222
        k(   55) = (  -0.1666667   0.3380727  -0.1406993), wk =   0.0222222
        k(   56) = (  -0.1666667   0.3380727  -0.2813986), wk =   0.0222222
        k(   57) = (  -0.3333333   0.1690363  -0.1406993), wk =   0.0222222
        k(   58) = (  -0.3333333   0.1690363  -0.2813986), wk =   0.0222222
        k(   59) = (  -0.3333333   0.3380727  -0.1406993), wk =   0.0222222
        k(   60) = (  -0.3333333   0.3380727  -0.2813986), wk =   0.0222222
        k(   61) = (   0.5000000   0.1690363  -0.1406993), wk =   0.0111111
        k(   62) = (   0.5000000   0.1690363  -0.2813986), wk =   0.0111111
        k(   63) = (   0.5000000   0.3380727  -0.1406993), wk =   0.0111111
        k(   64) = (   0.5000000   0.3380727  -0.2813986), wk =   0.0111111
        k(   65) = (   0.0000000   0.0000000   0.0000000), wk =   0.0055556
        k(   66) = (   0.0000000   0.0000000   0.1406993), wk =   0.0111111
        k(   67) = (   0.0000000   0.0000000   0.2813986), wk =   0.0111111
        k(   68) = (   0.0000000   0.1690363   0.0000000), wk =   0.0111111
        k(   69) = (   0.0000000   0.1690363   0.1406993), wk =   0.0111111
        k(   70) = (   0.0000000   0.1690363   0.2813986), wk =   0.0111111
        k(   71) = (   0.0000000   0.3380727   0.0000000), wk =   0.0111111
        k(   72) = (   0.0000000   0.3380727   0.1406993), wk =   0.0111111
        k(   73) = (   0.0000000   0.3380727   0.2813986), wk =   0.0111111
        k(   74) = (   0.0000000  -0.5071090   0.0000000), wk =   0.0055556
        k(   75) = (   0.0000000  -0.5071090   0.1406993), wk =   0.0111111
        k(   76) = (   0.0000000  -0.5071090   0.2813986), wk =   0.0111111
        k(   77) = (   0.1666667   0.0000000   0.0000000), wk =   0.0111111
        k(   78) = (   0.1666667   0.0000000   0.1406993), wk =   0.0222222
        k(   79) = (   0.1666667   0.0000000   0.2813986), wk =   0.0222222
        k(   80) = (   0.1666667   0.1690363   0.0000000), wk =   0.0222222
        k(   81) = (   0.1666667   0.1690363   0.1406993), wk =   0.0222222
        k(   82) = (   0.1666667   0.1690363   0.2813986), wk =   0.0222222
        k(   83) = (   0.1666667   0.3380727   0.0000000), wk =   0.0222222
        k(   84) = (   0.1666667   0.3380727   0.1406993), wk =   0.0222222
        k(   85) = (   0.1666667   0.3380727   0.2813986), wk =   0.0222222
        k(   86) = (   0.1666667  -0.5071090   0.0000000), wk =   0.0111111
        k(   87) = (   0.1666667  -0.5071090   0.1406993), wk =   0.0222222
        k(   88) = (   0.1666667  -0.5071090   0.2813986), wk =   0.0222222
        k(   89) = (   0.3333333   0.0000000   0.0000000), wk =   0.0111111
        k(   90) = (   0.3333333   0.0000000   0.1406993), wk =   0.0222222
        k(   91) = (   0.3333333   0.0000000   0.2813986), wk =   0.0222222
        k(   92) = (   0.3333333   0.1690363   0.0000000), wk =   0.0222222
        k(   93) = (   0.3333333   0.1690363   0.1406993), wk =   0.0222222
        k(   94) = (   0.3333333   0.1690363   0.2813986), wk =   0.0222222
        k(   95) = (   0.3333333   0.3380727   0.0000000), wk =   0.0222222
        k(   96) = (   0.3333333   0.3380727   0.1406993), wk =   0.0222222
        k(   97) = (   0.3333333   0.3380727   0.2813986), wk =   0.0222222
        k(   98) = (   0.3333333  -0.5071090   0.0000000), wk =   0.0111111
        k(   99) = (   0.3333333  -0.5071090   0.1406993), wk =   0.0222222
        k(  100) = (   0.3333333  -0.5071090   0.2813986), wk =   0.0222222
        k(  101) = (  -0.5000000   0.0000000   0.0000000), wk =   0.0055556
        k(  102) = (  -0.5000000   0.0000000   0.1406993), wk =   0.0111111
        k(  103) = (  -0.5000000   0.0000000   0.2813986), wk =   0.0111111
        k(  104) = (  -0.5000000   0.1690363   0.0000000), wk =   0.0111111
        k(  105) = (  -0.5000000   0.1690363   0.1406993), wk =   0.0111111
        k(  106) = (  -0.5000000   0.1690363   0.2813986), wk =   0.0111111
        k(  107) = (  -0.5000000   0.3380727   0.0000000), wk =   0.0111111
        k(  108) = (  -0.5000000   0.3380727   0.1406993), wk =   0.0111111
        k(  109) = (  -0.5000000   0.3380727   0.2813986), wk =   0.0111111
        k(  110) = (  -0.5000000  -0.5071090   0.0000000), wk =   0.0055556
        k(  111) = (  -0.5000000  -0.5071090   0.1406993), wk =   0.0111111
        k(  112) = (  -0.5000000  -0.5071090   0.2813986), wk =   0.0111111
        k(  113) = (   0.0000000   0.1690363  -0.1406993), wk =   0.0111111
        k(  114) = (   0.0000000   0.1690363  -0.2813986), wk =   0.0111111
        k(  115) = (   0.0000000   0.3380727  -0.1406993), wk =   0.0111111
        k(  116) = (   0.0000000   0.3380727  -0.2813986), wk =   0.0111111
        k(  117) = (  -0.1666667   0.1690363  -0.1406993), wk =   0.0222222
        k(  118) = (  -0.1666667   0.1690363  -0.2813986), wk =   0.0222222
        k(  119) = (  -0.1666667   0.3380727  -0.1406993), wk =   0.0222222
        k(  120) = (  -0.1666667   0.3380727  -0.2813986), wk =   0.0222222
        k(  121) = (  -0.3333333   0.1690363  -0.1406993), wk =   0.0222222
        k(  122) = (  -0.3333333   0.1690363  -0.2813986), wk =   0.0222222
        k(  123) = (  -0.3333333   0.3380727  -0.1406993), wk =   0.0222222
        k(  124) = (  -0.3333333   0.3380727  -0.2813986), wk =   0.0222222
        k(  125) = (   0.5000000   0.1690363  -0.1406993), wk =   0.0111111
        k(  126) = (   0.5000000   0.1690363  -0.2813986), wk =   0.0111111
        k(  127) = (   0.5000000   0.3380727  -0.1406993), wk =   0.0111111
        k(  128) = (   0.5000000   0.3380727  -0.2813986), wk =   0.0111111

                       cryst. coord.
        k(    1) = (   0.0000000   0.0000000   0.0000000), wk =   0.0055556
        k(    2) = (   0.0000000   0.0000000   0.2000000), wk =   0.0111111
        k(    3) = (   0.0000000   0.0000000   0.4000000), wk =   0.0111111
        k(    4) = (   0.0000000   0.1666667   0.0000000), wk =   0.0111111
        k(    5) = (   0.0000000   0.1666667   0.2000000), wk =   0.0111111
        k(    6) = (   0.0000000   0.1666667   0.4000000), wk =   0.0111111
        k(    7) = (   0.0000000   0.3333333   0.0000000), wk =   0.0111111
        k(    8) = (   0.0000000   0.3333333   0.2000000), wk =   0.0111111
        k(    9) = (   0.0000000   0.3333333   0.4000000), wk =   0.0111111
        k(   10) = (   0.0000000  -0.5000000   0.0000000), wk =   0.0055556
        k(   11) = (   0.0000000  -0.5000000   0.2000000), wk =   0.0111111
        k(   12) = (   0.0000000  -0.5000000   0.4000000), wk =   0.0111111
        k(   13) = (   0.1666667   0.0000000   0.0000000), wk =   0.0111111
        k(   14) = (   0.1666667   0.0000000   0.2000000), wk =   0.0222222
        k(   15) = (   0.1666667   0.0000000   0.4000000), wk =   0.0222222
        k(   16) = (   0.1666667   0.1666667   0.0000000), wk =   0.0222222
        k(   17) = (   0.1666667   0.1666667   0.2000000), wk =   0.0222222
        k(   18) = (   0.1666667   0.1666667   0.4000000), wk =   0.0222222
        k(   19) = (   0.1666667   0.3333333   0.0000000), wk =   0.0222222
        k(   20) = (   0.1666667   0.3333333   0.2000000), wk =   0.0222222
        k(   21) = (   0.1666667   0.3333333   0.4000000), wk =   0.0222222
        k(   22) = (   0.1666667  -0.5000000   0.0000000), wk =   0.0111111
        k(   23) = (   0.1666667  -0.5000000   0.2000000), wk =   0.0222222
        k(   24) = (   0.1666667  -0.5000000   0.4000000), wk =   0.0222222
        k(   25) = (   0.3333333   0.0000000   0.0000000), wk =   0.0111111
        k(   26) = (   0.3333333   0.0000000   0.2000000), wk =   0.0222222
        k(   27) = (   0.3333333   0.0000000   0.4000000), wk =   0.0222222
        k(   28) = (   0.3333333   0.1666667   0.0000000), wk =   0.0222222
        k(   29) = (   0.3333333   0.1666667   0.2000000), wk =   0.0222222
        k(   30) = (   0.3333333   0.1666667   0.4000000), wk =   0.0222222
        k(   31) = (   0.3333333   0.3333333   0.0000000), wk =   0.0222222
        k(   32) = (   0.3333333   0.3333333   0.2000000), wk =   0.0222222
        k(   33) = (   0.3333333   0.3333333   0.4000000), wk =   0.0222222
        k(   34) = (   0.3333333  -0.5000000   0.0000000), wk =   0.0111111
        k(   35) = (   0.3333333  -0.5000000   0.2000000), wk =   0.0222222
        k(   36) = (   0.3333333  -0.5000000   0.4000000), wk =   0.0222222
        k(   37) = (  -0.5000000   0.0000000   0.0000000), wk =   0.0055556
        k(   38) = (  -0.5000000   0.0000000   0.2000000), wk =   0.0111111
        k(   39) = (  -0.5000000   0.0000000   0.4000000), wk =   0.0111111
        k(   40) = (  -0.5000000   0.1666667   0.0000000), wk =   0.0111111
        k(   41) = (  -0.5000000   0.1666667   0.2000000), wk =   0.0111111
        k(   42) = (  -0.5000000   0.1666667   0.4000000), wk =   0.0111111
        k(   43) = (  -0.5000000   0.3333333   0.0000000), wk =   0.0111111
        k(   44) = (  -0.5000000   0.3333333   0.2000000), wk =   0.0111111
        k(   45) = (  -0.5000000   0.3333333   0.4000000), wk =   0.0111111
        k(   46) = (  -0.5000000  -0.5000000   0.0000000), wk =   0.0055556
        k(   47) = (  -0.5000000  -0.5000000   0.2000000), wk =   0.0111111
        k(   48) = (  -0.5000000  -0.5000000   0.4000000), wk =   0.0111111
        k(   49) = (   0.0000000   0.1666667  -0.2000000), wk =   0.0111111
        k(   50) = (   0.0000000   0.1666667  -0.4000000), wk =   0.0111111
        k(   51) = (   0.0000000   0.3333333  -0.2000000), wk =   0.0111111
        k(   52) = (   0.0000000   0.3333333  -0.4000000), wk =   0.0111111
        k(   53) = (  -0.1666667   0.1666667  -0.2000000), wk =   0.0222222
        k(   54) = (  -0.1666667   0.1666667  -0.4000000), wk =   0.0222222
        k(   55) = (  -0.1666667   0.3333333  -0.2000000), wk =   0.0222222
        k(   56) = (  -0.1666667   0.3333333  -0.4000000), wk =   0.0222222
        k(   57) = (  -0.3333333   0.1666667  -0.2000000), wk =   0.0222222
        k(   58) = (  -0.3333333   0.1666667  -0.4000000), wk =   0.0222222
        k(   59) = (  -0.3333333   0.3333333  -0.2000000), wk =   0.0222222
        k(   60) = (  -0.3333333   0.3333333  -0.4000000), wk =   0.0222222
        k(   61) = (   0.5000000   0.1666667  -0.2000000), wk =   0.0111111
        k(   62) = (   0.5000000   0.1666667  -0.4000000), wk =   0.0111111
        k(   63) = (   0.5000000   0.3333333  -0.2000000), wk =   0.0111111
        k(   64) = (   0.5000000   0.3333333  -0.4000000), wk =   0.0111111
        k(   65) = (   0.0000000   0.0000000   0.0000000), wk =   0.0055556
        k(   66) = (   0.0000000   0.0000000   0.2000000), wk =   0.0111111
        k(   67) = (   0.0000000   0.0000000   0.4000000), wk =   0.0111111
        k(   68) = (   0.0000000   0.1666667   0.0000000), wk =   0.0111111
        k(   69) = (   0.0000000   0.1666667   0.2000000), wk =   0.0111111
        k(   70) = (   0.0000000   0.1666667   0.4000000), wk =   0.0111111
        k(   71) = (   0.0000000   0.3333333   0.0000000), wk =   0.0111111
        k(   72) = (   0.0000000   0.3333333   0.2000000), wk =   0.0111111
        k(   73) = (   0.0000000   0.3333333   0.4000000), wk =   0.0111111
        k(   74) = (   0.0000000  -0.5000000   0.0000000), wk =   0.0055556
        k(   75) = (   0.0000000  -0.5000000   0.2000000), wk =   0.0111111
        k(   76) = (   0.0000000  -0.5000000   0.4000000), wk =   0.0111111
        k(   77) = (   0.1666667   0.0000000   0.0000000), wk =   0.0111111
        k(   78) = (   0.1666667   0.0000000   0.2000000), wk =   0.0222222
        k(   79) = (   0.1666667   0.0000000   0.4000000), wk =   0.0222222
        k(   80) = (   0.1666667   0.1666667   0.0000000), wk =   0.0222222
        k(   81) = (   0.1666667   0.1666667   0.2000000), wk =   0.0222222
        k(   82) = (   0.1666667   0.1666667   0.4000000), wk =   0.0222222
        k(   83) = (   0.1666667   0.3333333   0.0000000), wk =   0.0222222
        k(   84) = (   0.1666667   0.3333333   0.2000000), wk =   0.0222222
        k(   85) = (   0.1666667   0.3333333   0.4000000), wk =   0.0222222
        k(   86) = (   0.1666667  -0.5000000   0.0000000), wk =   0.0111111
        k(   87) = (   0.1666667  -0.5000000   0.2000000), wk =   0.0222222
        k(   88) = (   0.1666667  -0.5000000   0.4000000), wk =   0.0222222
        k(   89) = (   0.3333333   0.0000000   0.0000000), wk =   0.0111111
        k(   90) = (   0.3333333   0.0000000   0.2000000), wk =   0.0222222
        k(   91) = (   0.3333333   0.0000000   0.4000000), wk =   0.0222222
        k(   92) = (   0.3333333   0.1666667   0.0000000), wk =   0.0222222
        k(   93) = (   0.3333333   0.1666667   0.2000000), wk =   0.0222222
        k(   94) = (   0.3333333   0.1666667   0.4000000), wk =   0.0222222
        k(   95) = (   0.3333333   0.3333333   0.0000000), wk =   0.0222222
        k(   96) = (   0.3333333   0.3333333   0.2000000), wk =   0.0222222
        k(   97) = (   0.3333333   0.3333333   0.4000000), wk =   0.0222222
        k(   98) = (   0.3333333  -0.5000000   0.0000000), wk =   0.0111111
        k(   99) = (   0.3333333  -0.5000000   0.2000000), wk =   0.0222222
        k(  100) = (   0.3333333  -0.5000000   0.4000000), wk =   0.0222222
        k(  101) = (  -0.5000000   0.0000000   0.0000000), wk =   0.0055556
        k(  102) = (  -0.5000000   0.0000000   0.2000000), wk =   0.0111111
        k(  103) = (  -0.5000000   0.0000000   0.4000000), wk =   0.0111111
        k(  104) = (  -0.5000000   0.1666667   0.0000000), wk =   0.0111111
        k(  105) = (  -0.5000000   0.1666667   0.2000000), wk =   0.0111111
        k(  106) = (  -0.5000000   0.1666667   0.4000000), wk =   0.0111111
        k(  107) = (  -0.5000000   0.3333333   0.0000000), wk =   0.0111111
        k(  108) = (  -0.5000000   0.3333333   0.2000000), wk =   0.0111111
        k(  109) = (  -0.5000000   0.3333333   0.4000000), wk =   0.0111111
        k(  110) = (  -0.5000000  -0.5000000   0.0000000), wk =   0.0055556
        k(  111) = (  -0.5000000  -0.5000000   0.2000000), wk =   0.0111111
        k(  112) = (  -0.5000000  -0.5000000   0.4000000), wk =   0.0111111
        k(  113) = (   0.0000000   0.1666667  -0.2000000), wk =   0.0111111
        k(  114) = (   0.0000000   0.1666667  -0.4000000), wk =   0.0111111
        k(  115) = (   0.0000000   0.3333333  -0.2000000), wk =   0.0111111
        k(  116) = (   0.0000000   0.3333333  -0.4000000), wk =   0.0111111
        k(  117) = (  -0.1666667   0.1666667  -0.2000000), wk =   0.0222222
        k(  118) = (  -0.1666667   0.1666667  -0.4000000), wk =   0.0222222
        k(  119) = (  -0.1666667   0.3333333  -0.2000000), wk =   0.0222222
        k(  120) = (  -0.1666667   0.3333333  -0.4000000), wk =   0.0222222
        k(  121) = (  -0.3333333   0.1666667  -0.2000000), wk =   0.0222222
        k(  122) = (  -0.3333333   0.1666667  -0.4000000), wk =   0.0222222
        k(  123) = (  -0.3333333   0.3333333  -0.2000000), wk =   0.0222222
        k(  124) = (  -0.3333333   0.3333333  -0.4000000), wk =   0.0222222
        k(  125) = (   0.5000000   0.1666667  -0.2000000), wk =   0.0111111
        k(  126) = (   0.5000000   0.1666667  -0.4000000), wk =   0.0111111
        k(  127) = (   0.5000000   0.3333333  -0.2000000), wk =   0.0111111
        k(  128) = (   0.5000000   0.3333333  -0.4000000), wk =   0.0111111

     Dense  grid:   705411 G-vectors     FFT dimensions: ( 100, 100, 144)

     Smooth grid:   304773 G-vectors     FFT dimensions: (  75,  75, 108)

     Largest allocated arrays     est. size (Mb)     dimensions
        Kohn-Sham Wavefunctions         4.05 Mb     (    1600,  166)
        NL pseudopotentials             7.81 Mb     (    1600,  320)
        Each V/rho on FFT grid          1.83 Mb     (   60000,   2)
        Each G-vector array             0.22 Mb     (   29393)
        G-vector shells                 0.22 Mb     (   29393)
     Largest temporary arrays     est. size (Mb)     dimensions
        Auxiliary wavefunctions        16.21 Mb     (    1600,  664)
        Each subspace H/S matrix        0.75 Mb     (     221,  221)
        Each <psi_i|beta_j> matrix      0.81 Mb     (     320,  166)
        Arrays for rho mixing           7.32 Mb     (   60000,    8)

     Check: negative/imaginary core charge=   -0.000010    0.000000

     Initial potential from superposition of free atoms

     starting charge  275.99296, renormalised to  276.00000
     Starting wfc are  224 randomized atomic wfcs
     Checking if some PAW data can be deallocated... 
       node   20, deallocated PAW data for type:  1
       node   21, deallocated PAW data for type:  1
       node   22, deallocated PAW data for type:  1
       node   23, deallocated PAW data for type:  1

     total cpu time spent up to now is       61.2 secs

     per-process dynamical memory:   622.3 Mb

     Self-consistent Calculation

     iteration #  1     ecut=   140.00 Ry     beta=0.40
     Davidson diagonalization with overlap
     ethr =  1.00E-02,  avg # of iterations =  2.1

     negative rho (up, down):  0.000E+00 6.942E-05
 
     Magnetic moment per site:
     atom:    1    charge:   12.8205    magn:    3.3974    constr:    0.0000
     atom:    2    charge:   12.8205    magn:    3.3974    constr:    0.0000
     atom:    3    charge:   12.8205    magn:    3.3974    constr:    0.0000
     atom:    4    charge:   12.8205    magn:    3.3974    constr:    0.0000
     atom:    5    charge:   12.8206    magn:    3.3975    constr:    0.0000
     atom:    6    charge:   12.8206    magn:    3.3975    constr:    0.0000
     atom:    7    charge:   12.8206    magn:    3.3975    constr:    0.0000
     atom:    8    charge:   12.8206    magn:    3.3975    constr:    0.0000
     atom:    9    charge:   12.8001    magn:    3.4141    constr:    0.0000
     atom:   10    charge:   12.8012    magn:    3.4134    constr:    0.0000
     atom:   11    charge:   12.8005    magn:    3.4138    constr:    0.0000
     atom:   12    charge:   12.8005    magn:    3.4140    constr:    0.0000
     atom:   13    charge:   12.7503    magn:    3.5326    constr:    0.0000
     atom:   14    charge:   12.7494    magn:    3.5331    constr:    0.0000
     atom:   15    charge:   12.7496    magn:    3.5330    constr:    0.0000
     atom:   16    charge:   12.7499    magn:    3.5329    constr:    0.0000
     atom:   17    charge:    4.2422    magn:    0.3242    constr:    0.0000
     atom:   18    charge:    4.2422    magn:    0.3242    constr:    0.0000
     atom:   19    charge:    4.2422    magn:    0.3242    constr:    0.0000
     atom:   20    charge:    4.2422    magn:    0.3242    constr:    0.0000

     total cpu time spent up to now is      198.8 secs

     total energy              =   -5347.24481427 Ry
     Harris-Foulkes estimate   =   -5347.49898758 Ry
     estimated scf accuracy    <       3.96512029 Ry

     total magnetization       =    45.42 Bohr mag/cell
     absolute magnetization    =    46.30 Bohr mag/cell

     iteration #  2     ecut=   140.00 Ry     beta=0.40
     Davidson diagonalization with overlap
     ethr =  1.44E-03,  avg # of iterations =  4.1

     negative rho (up, down):  0.000E+00 2.006E-04
 
     Magnetic moment per site:
     atom:    1    charge:   12.7977    magn:    3.2002    constr:    0.0000
     atom:    2    charge:   12.7977    magn:    3.2002    constr:    0.0000
     atom:    3    charge:   12.7977    magn:    3.2002    constr:    0.0000
     atom:    4    charge:   12.7977    magn:    3.2002    constr:    0.0000
     atom:    5    charge:   12.7975    magn:    3.2004    constr:    0.0000
     atom:    6    charge:   12.7975    magn:    3.2004    constr:    0.0000
     atom:    7    charge:   12.7975    magn:    3.2004    constr:    0.0000
     atom:    8    charge:   12.7975    magn:    3.2004    constr:    0.0000
     atom:    9    charge:   12.8203    magn:    3.2019    constr:    0.0000
     atom:   10    charge:   12.8177    magn:    3.2033    constr:    0.0000
     atom:   11    charge:   12.8194    magn:    3.2024    constr:    0.0000
     atom:   12    charge:   12.8192    magn:    3.2028    constr:    0.0000
     atom:   13    charge:   12.8879    magn:    3.2686    constr:    0.0000
     atom:   14    charge:   12.8903    magn:    3.2665    constr:    0.0000
     atom:   15    charge:   12.8900    magn:    3.2668    constr:    0.0000
     atom:   16    charge:   12.8892    magn:    3.2675    constr:    0.0000
     atom:   17    charge:    4.1247    magn:    0.2570    constr:    0.0000
     atom:   18    charge:    4.1247    magn:    0.2570    constr:    0.0000
     atom:   19    charge:    4.1247    magn:    0.2570    constr:    0.0000
     atom:   20    charge:    4.1247    magn:    0.2570    constr:    0.0000

     total cpu time spent up to now is      378.7 secs

     total energy              =   -5347.92201517 Ry
     Harris-Foulkes estimate   =   -5348.60705025 Ry
     estimated scf accuracy    <       3.68086082 Ry

     total magnetization       =    41.28 Bohr mag/cell
     absolute magnetization    =    42.56 Bohr mag/cell

     iteration #  3     ecut=   140.00 Ry     beta=0.40
     Davidson diagonalization with overlap
     ethr =  1.33E-03,  avg # of iterations =  2.4

     negative rho (up, down):  0.000E+00 2.887E-04
 
     Magnetic moment per site:
     atom:    1    charge:   12.8561    magn:    3.0246    constr:    0.0000
     atom:    2    charge:   12.8561    magn:    3.0246    constr:    0.0000
     atom:    3    charge:   12.8561    magn:    3.0246    constr:    0.0000
     atom:    4    charge:   12.8561    magn:    3.0246    constr:    0.0000
     atom:    5    charge:   12.8564    magn:    3.0245    constr:    0.0000
     atom:    6    charge:   12.8564    magn:    3.0245    constr:    0.0000
     atom:    7    charge:   12.8564    magn:    3.0245    constr:    0.0000
     atom:    8    charge:   12.8564    magn:    3.0245    constr:    0.0000
     atom:    9    charge:   12.8306    magn:    3.0620    constr:    0.0000
     atom:   10    charge:   12.8323    magn:    3.0607    constr:    0.0000
     atom:   11    charge:   12.8312    magn:    3.0615    constr:    0.0000
     atom:   12    charge:   12.8313    magn:    3.0618    constr:    0.0000
     atom:   13    charge:   12.8004    magn:    3.1876    constr:    0.0000
     atom:   14    charge:   12.8008    magn:    3.1846    constr:    0.0000
     atom:   15    charge:   12.8003    magn:    3.1850    constr:    0.0000
     atom:   16    charge:   12.8008    magn:    3.1862    constr:    0.0000
     atom:   17    charge:    4.0894    magn:    0.2200    constr:    0.0000
     atom:   18    charge:    4.0894    magn:    0.2200    constr:    0.0000
     atom:   19    charge:    4.0894    magn:    0.2200    constr:    0.0000
     atom:   20    charge:    4.0894    magn:    0.2200    constr:    0.0000

     total cpu time spent up to now is      511.8 secs

     total energy              =   -5348.21791326 Ry
     Harris-Foulkes estimate   =   -5349.03852151 Ry
     estimated scf accuracy    <       6.86278537 Ry

     total magnetization       =    42.00 Bohr mag/cell
     absolute magnetization    =    42.85 Bohr mag/cell

     iteration #  4     ecut=   140.00 Ry     beta=0.40
     Davidson diagonalization with overlap
     ethr =  1.33E-03,  avg # of iterations =  1.8

     negative rho (up, down):  0.000E+00 6.354E-04
 
     Magnetic moment per site:
     atom:    1    charge:   12.8110    magn:    2.5566    constr:    0.0000
     atom:    2    charge:   12.8110    magn:    2.5566    constr:    0.0000
     atom:    3    charge:   12.8110    magn:    2.5566    constr:    0.0000
     atom:    4    charge:   12.8110    magn:    2.5566    constr:    0.0000
     atom:    5    charge:   12.8092    magn:    2.5575    constr:    0.0000
     atom:    6    charge:   12.8092    magn:    2.5575    constr:    0.0000
     atom:    7    charge:   12.8092    magn:    2.5575    constr:    0.0000
     atom:    8    charge:   12.8092    magn:    2.5575    constr:    0.0000
     atom:    9    charge:   12.8982    magn:    2.5469    constr:    0.0000
     atom:   10    charge:   12.8846    magn:    2.5552    constr:    0.0000
     atom:   11    charge:   12.8947    magn:    2.5489    constr:    0.0000
     atom:   12    charge:   12.8913    magn:    2.5518    constr:    0.0000
     atom:   13    charge:   12.7665    magn:    2.8207    constr:    0.0000
     atom:   14    charge:   12.7605    magn:    2.8218    constr:    0.0000
     atom:   15    charge:   12.7662    magn:    2.8177    constr:    0.0000
     atom:   16    charge:   12.7610    magn:    2.8235    constr:    0.0000
     atom:   17    charge:    4.0872    magn:    0.0996    constr:    0.0000
     atom:   18    charge:    4.0872    magn:    0.0996    constr:    0.0000
     atom:   19    charge:    4.0873    magn:    0.0996    constr:    0.0000
     atom:   20    charge:    4.0873    magn:    0.0996    constr:    0.0000

     total cpu time spent up to now is      636.3 secs

     total energy              =   -5348.88172631 Ry
     Harris-Foulkes estimate   =   -5348.71125004 Ry
     estimated scf accuracy    <       0.58694868 Ry

     total magnetization       =    42.07 Bohr mag/cell
     absolute magnetization    =    43.24 Bohr mag/cell

     iteration #  5     ecut=   140.00 Ry     beta=0.40
     Davidson diagonalization with overlap
     ethr =  2.13E-04,  avg # of iterations =  4.1

     negative rho (up, down):  0.000E+00 8.065E-04
 
     Magnetic moment per site:
     atom:    1    charge:   12.8271    magn:    2.2679    constr:    0.0000
     atom:    2    charge:   12.8271    magn:    2.2679    constr:    0.0000
     atom:    3    charge:   12.8271    magn:    2.2679    constr:    0.0000
     atom:    4    charge:   12.8271    magn:    2.2679    constr:    0.0000
     atom:    5    charge:   12.8280    magn:    2.2673    constr:    0.0000
     atom:    6    charge:   12.8280    magn:    2.2673    constr:    0.0000
     atom:    7    charge:   12.8280    magn:    2.2673    constr:    0.0000
     atom:    8    charge:   12.8280    magn:    2.2673    constr:    0.0000
     atom:    9    charge:   12.8055    magn:    2.2642    constr:    0.0000
     atom:   10    charge:   12.8195    magn:    2.2855    constr:    0.0000
     atom:   11    charge:   12.8079    magn:    2.2701    constr:    0.0000
     atom:   12    charge:   12.8172    magn:    2.2783    constr:    0.0000
     atom:   13    charge:   12.7743    magn:    2.6040    constr:    0.0000
     atom:   14    charge:   12.7859    magn:    2.5903    constr:    0.0000
     atom:   15    charge:   12.7745    magn:    2.6005    constr:    0.0000
     atom:   16    charge:   12.7856    magn:    2.5927    constr:    0.0000
     atom:   17    charge:    4.0888    magn:    0.0315    constr:    0.0000
     atom:   18    charge:    4.0888    magn:    0.0315    constr:    0.0000
     atom:   19    charge:    4.0888    magn:    0.0314    constr:    0.0000
     atom:   20    charge:    4.0888    magn:    0.0314    constr:    0.0000

     total cpu time spent up to now is      812.5 secs

     total energy              =   -5348.70312184 Ry
     Harris-Foulkes estimate   =   -5349.29184745 Ry
     estimated scf accuracy    <       5.84126786 Ry

     total magnetization       =    37.36 Bohr mag/cell
     absolute magnetization    =    38.89 Bohr mag/cell

     iteration #  6     ecut=   140.00 Ry     beta=0.40
     Davidson diagonalization with overlap
     ethr =  2.13E-04,  avg # of iterations =  3.9

     negative rho (up, down):  0.000E+00 8.233E-04
 
     Magnetic moment per site:
     atom:    1    charge:   12.8309    magn:    2.1898    constr:    0.0000
     atom:    2    charge:   12.8309    magn:    2.1898    constr:    0.0000
     atom:    3    charge:   12.8309    magn:    2.1898    constr:    0.0000
     atom:    4    charge:   12.8309    magn:    2.1898    constr:    0.0000
     atom:    5    charge:   12.8300    magn:    2.1898    constr:    0.0000
     atom:    6    charge:   12.8300    magn:    2.1898    constr:    0.0000
     atom:    7    charge:   12.8300    magn:    2.1898    constr:    0.0000
     atom:    8    charge:   12.8300    magn:    2.1898    constr:    0.0000
     atom:    9    charge:   12.8291    magn:    2.1758    constr:    0.0000
     atom:   10    charge:   12.7990    magn:    2.2223    constr:    0.0000
     atom:   11    charge:   12.8263    magn:    2.1850    constr:    0.0000
     atom:   12    charge:   12.8011    magn:    2.2125    constr:    0.0000
     atom:   13    charge:   12.7967    magn:    2.5507    constr:    0.0000
     atom:   14    charge:   12.7750    magn:    2.5598    constr:    0.0000
     atom:   15    charge:   12.7970    magn:    2.5473    constr:    0.0000
     atom:   16    charge:   12.7749    magn:    2.5621    constr:    0.0000
     atom:   17    charge:    4.0918    magn:    0.0181    constr:    0.0000
     atom:   18    charge:    4.0918    magn:    0.0181    constr:    0.0000
     atom:   19    charge:    4.0917    magn:    0.0180    constr:    0.0000
     atom:   20    charge:    4.0917    magn:    0.0180    constr:    0.0000

     total cpu time spent up to now is      979.7 secs

     total energy              =   -5349.00897075 Ry
     Harris-Foulkes estimate   =   -5349.06815177 Ry
     estimated scf accuracy    <       0.38144274 Ry

     total magnetization       =    38.53 Bohr mag/cell
     absolute magnetization    =    39.98 Bohr mag/cell

     iteration #  7     ecut=   140.00 Ry     beta=0.40
     Davidson diagonalization with overlap
     ethr =  1.38E-04,  avg # of iterations =  4.0

     negative rho (up, down):  0.000E+00 8.306E-04
 
     Magnetic moment per site:
     atom:    1    charge:   12.8319    magn:    2.0930    constr:    0.0000
     atom:    2    charge:   12.8319    magn:    2.0930    constr:    0.0000
     atom:    3    charge:   12.8319    magn:    2.0930    constr:    0.0000
     atom:    4    charge:   12.8319    magn:    2.0930    constr:    0.0000
     atom:    5    charge:   12.8309    magn:    2.0931    constr:    0.0000
     atom:    6    charge:   12.8309    magn:    2.0931    constr:    0.0000
     atom:    7    charge:   12.8309    magn:    2.0931    constr:    0.0000
     atom:    8    charge:   12.8309    magn:    2.0931    constr:    0.0000
     atom:    9    charge:   12.8264    magn:    2.0839    constr:    0.0000
     atom:   10    charge:   12.8266    magn:    2.1178    constr:    0.0000
     atom:   11    charge:   12.8235    magn:    2.0948    constr:    0.0000
     atom:   12    charge:   12.8294    magn:    2.1079    constr:    0.0000
     atom:   13    charge:   12.7933    magn:    2.5125    constr:    0.0000
     atom:   14    charge:   12.7909    magn:    2.5084    constr:    0.0000
     atom:   15    charge:   12.7933    magn:    2.5094    constr:    0.0000
     atom:   16    charge:   12.7911    magn:    2.5105    constr:    0.0000
     atom:   17    charge:    4.0957    magn:    0.0034    constr:    0.0000
     atom:   18    charge:    4.0957    magn:    0.0034    constr:    0.0000
     atom:   19    charge:    4.0957    magn:    0.0033    constr:    0.0000
     atom:   20    charge:    4.0957    magn:    0.0033    constr:    0.0000

     total cpu time spent up to now is     1123.4 secs

     total energy              =   -5349.01010235 Ry
     Harris-Foulkes estimate   =   -5349.11737429 Ry
     estimated scf accuracy    <       1.52438494 Ry

     total magnetization       =    37.75 Bohr mag/cell
     absolute magnetization    =    39.25 Bohr mag/cell

     iteration #  8     ecut=   140.00 Ry     beta=0.40
     Davidson diagonalization with overlap
     ethr =  1.38E-04,  avg # of iterations =  2.2

     negative rho (up, down):  0.000E+00 8.175E-04
 
     Magnetic moment per site:
     atom:    1    charge:   12.8313    magn:    2.0739    constr:    0.0000
     atom:    2    charge:   12.8313    magn:    2.0739    constr:    0.0000
     atom:    3    charge:   12.8313    magn:    2.0739    constr:    0.0000
     atom:    4    charge:   12.8313    magn:    2.0739    constr:    0.0000
     atom:    5    charge:   12.8324    magn:    2.0732    constr:    0.0000
     atom:    6    charge:   12.8324    magn:    2.0732    constr:    0.0000
     atom:    7    charge:   12.8324    magn:    2.0732    constr:    0.0000
     atom:    8    charge:   12.8324    magn:    2.0732    constr:    0.0000
     atom:    9    charge:   12.8274    magn:    2.0692    constr:    0.0000
     atom:   10    charge:   12.8275    magn:    2.1028    constr:    0.0000
     atom:   11    charge:   12.8303    magn:    2.0775    constr:    0.0000
     atom:   12    charge:   12.8248    magn:    2.0953    constr:    0.0000
     atom:   13    charge:   12.7906    magn:    2.5161    constr:    0.0000
     atom:   14    charge:   12.7939    magn:    2.5095    constr:    0.0000
     atom:   15    charge:   12.7906    magn:    2.5134    constr:    0.0000
     atom:   16    charge:   12.7937    magn:    2.5115    constr:    0.0000
     atom:   17    charge:    4.0963    magn:    0.0033    constr:    0.0000
     atom:   18    charge:    4.0963    magn:    0.0033    constr:    0.0000
     atom:   19    charge:    4.0963    magn:    0.0032    constr:    0.0000
     atom:   20    charge:    4.0963    magn:    0.0032    constr:    0.0000

     total cpu time spent up to now is     1250.2 secs

     total energy              =   -5349.06734959 Ry
     Harris-Foulkes estimate   =   -5349.06766375 Ry
     estimated scf accuracy    <       0.02123186 Ry

     total magnetization       =    37.28 Bohr mag/cell
     absolute magnetization    =    38.79 Bohr mag/cell

     iteration #  9     ecut=   140.00 Ry     beta=0.40
     Davidson diagonalization with overlap
     ethr =  7.69E-06,  avg # of iterations =  5.3

     negative rho (up, down):  0.000E+00 7.548E-04
 
     Magnetic moment per site:
     atom:    1    charge:   12.8348    magn:    1.9865    constr:    0.0000
     atom:    2    charge:   12.8348    magn:    1.9865    constr:    0.0000
     atom:    3    charge:   12.8348    magn:    1.9865    constr:    0.0000
     atom:    4    charge:   12.8348    magn:    1.9865    constr:    0.0000
     atom:    5    charge:   12.8333    magn:    1.9867    constr:    0.0000
     atom:    6    charge:   12.8333    magn:    1.9867    constr:    0.0000
     atom:    7    charge:   12.8333    magn:    1.9867    constr:    0.0000
     atom:    8    charge:   12.8333    magn:    1.9867    constr:    0.0000
     atom:    9    charge:   12.8329    magn:    2.0067    constr:    0.0000
     atom:   10    charge:   12.8287    magn:    2.0359    constr:    0.0000
     atom:   11    charge:   12.8306    magn:    2.0143    constr:    0.0000
     atom:   12    charge:   12.8310    magn:    2.0280    constr:    0.0000
     atom:   13    charge:   12.7908    magn:    2.5286    constr:    0.0000
     atom:   14    charge:   12.7932    magn:    2.5250    constr:    0.0000
     atom:   15    charge:   12.7920    magn:    2.5261    constr:    0.0000
     atom:   16    charge:   12.7921    magn:    2.5269    constr:    0.0000
     atom:   17    charge:    4.0983    magn:    0.0044    constr:    0.0000
     atom:   18    charge:    4.0983    magn:    0.0044    constr:    0.0000
     atom:   19    charge:    4.0983    magn:    0.0043    constr:    0.0000
     atom:   20    charge:    4.0983    magn:    0.0043    constr:    0.0000

     total cpu time spent up to now is     1411.7 secs

     total energy              =   -5349.07229085 Ry
     Harris-Foulkes estimate   =   -5349.06984989 Ry
     estimated scf accuracy    <       0.02036280 Ry

     total magnetization       =    37.14 Bohr mag/cell
     absolute magnetization    =    38.64 Bohr mag/cell

     iteration # 10     ecut=   140.00 Ry     beta=0.40
     Davidson diagonalization with overlap
     ethr =  7.38E-06,  avg # of iterations =  1.3

     negative rho (up, down):  0.000E+00 7.340E-04
 
     Magnetic moment per site:
     atom:    1    charge:   12.8329    magn:    1.9675    constr:    0.0000
     atom:    2    charge:   12.8329    magn:    1.9675    constr:    0.0000
     atom:    3    charge:   12.8329    magn:    1.9675    constr:    0.0000
     atom:    4    charge:   12.8329    magn:    1.9675    constr:    0.0000
     atom:    5    charge:   12.8367    magn:    1.9657    constr:    0.0000
     atom:    6    charge:   12.8367    magn:    1.9657    constr:    0.0000
     atom:    7    charge:   12.8367    magn:    1.9657    constr:    0.0000
     atom:    8    charge:   12.8367    magn:    1.9657    constr:    0.0000
     atom:    9    charge:   12.8273    magn:    1.9974    constr:    0.0000
     atom:   10    charge:   12.8348    magn:    2.0192    constr:    0.0000
     atom:   11    charge:   12.8312    magn:    2.0023    constr:    0.0000
     atom:   12    charge:   12.8315    magn:    2.0145    constr:    0.0000
     atom:   13    charge:   12.7953    magn:    2.5347    constr:    0.0000
     atom:   14    charge:   12.7874    magn:    2.5379    constr:    0.0000
     atom:   15    charge:   12.7926    magn:    2.5349    constr:    0.0000
     atom:   16    charge:   12.7899    magn:    2.5372    constr:    0.0000
     atom:   17    charge:    4.0971    magn:    0.0061    constr:    0.0000
     atom:   18    charge:    4.0971    magn:    0.0061    constr:    0.0000
     atom:   19    charge:    4.0971    magn:    0.0061    constr:    0.0000
     atom:   20    charge:    4.0971    magn:    0.0061    constr:    0.0000

     total cpu time spent up to now is     1529.5 secs

     total energy              =   -5349.07429443 Ry
     Harris-Foulkes estimate   =   -5349.07471400 Ry
     estimated scf accuracy    <       0.01361505 Ry

     total magnetization       =    36.48 Bohr mag/cell
     absolute magnetization    =    37.97 Bohr mag/cell

     iteration # 11     ecut=   140.00 Ry     beta=0.40
     Davidson diagonalization with overlap
     ethr =  4.93E-06,  avg # of iterations =  2.2

     negative rho (up, down):  0.000E+00 6.288E-04
 
     Magnetic moment per site:
     atom:    1    charge:   12.8401    magn:    1.8611    constr:    0.0000
     atom:    2    charge:   12.8401    magn:    1.8611    constr:    0.0000
     atom:    3    charge:   12.8401    magn:    1.8611    constr:    0.0000
     atom:    4    charge:   12.8401    magn:    1.8611    constr:    0.0000
     atom:    5    charge:   12.8385    magn:    1.8610    constr:    0.0000
     atom:    6    charge:   12.8385    magn:    1.8610    constr:    0.0000
     atom:    7    charge:   12.8385    magn:    1.8610    constr:    0.0000
     atom:    8    charge:   12.8385    magn:    1.8610    constr:    0.0000
     atom:    9    charge:   12.8344    magn:    1.9328    constr:    0.0000
     atom:   10    charge:   12.8349    magn:    1.9445    constr:    0.0000
     atom:   11    charge:   12.8351    magn:    1.9352    constr:    0.0000
     atom:   12    charge:   12.8335    magn:    1.9432    constr:    0.0000
     atom:   13    charge:   12.7908    magn:    2.5788    constr:    0.0000
     atom:   14    charge:   12.7898    magn:    2.5797    constr:    0.0000
     atom:   15    charge:   12.7894    magn:    2.5801    constr:    0.0000
     atom:   16    charge:   12.7902    magn:    2.5796    constr:    0.0000
     atom:   17    charge:    4.0918    magn:    0.0141    constr:    0.0000
     atom:   18    charge:    4.0918    magn:    0.0141    constr:    0.0000
     atom:   19    charge:    4.0919    magn:    0.0140    constr:    0.0000
     atom:   20    charge:    4.0919    magn:    0.0140    constr:    0.0000

     total cpu time spent up to now is     1658.6 secs

     total energy              =   -5349.07607645 Ry
     Harris-Foulkes estimate   =   -5349.07728575 Ry
     estimated scf accuracy    <       0.03842248 Ry

     total magnetization       =    36.33 Bohr mag/cell
     absolute magnetization    =    37.80 Bohr mag/cell

     iteration # 12     ecut=   140.00 Ry     beta=0.40
     Davidson diagonalization with overlap
     ethr =  4.93E-06,  avg # of iterations =  2.4

     negative rho (up, down):  0.000E+00 5.914E-04
 
     Magnetic moment per site:
     atom:    1    charge:   12.8397    magn:    1.8357    constr:    0.0000
     atom:    2    charge:   12.8397    magn:    1.8357    constr:    0.0000
     atom:    3    charge:   12.8397    magn:    1.8357    constr:    0.0000
     atom:    4    charge:   12.8397    magn:    1.8357    constr:    0.0000
     atom:    5    charge:   12.8435    magn:    1.8339    constr:    0.0000
     atom:    6    charge:   12.8435    magn:    1.8339    constr:    0.0000
     atom:    7    charge:   12.8435    magn:    1.8339    constr:    0.0000
     atom:    8    charge:   12.8435    magn:    1.8339    constr:    0.0000
     atom:    9    charge:   12.8385    magn:    1.9209    constr:    0.0000
     atom:   10    charge:   12.8320    magn:    1.9309    constr:    0.0000
     atom:   11    charge:   12.8344    magn:    1.9245    constr:    0.0000
     atom:   12    charge:   12.8378    magn:    1.9288    constr:    0.0000
     atom:   13    charge:   12.7857    magn:    2.6034    constr:    0.0000
     atom:   14    charge:   12.7895    magn:    2.6013    constr:    0.0000
     atom:   15    charge:   12.7896    magn:    2.6014    constr:    0.0000
     atom:   16    charge:   12.7881    magn:    2.6020    constr:    0.0000
     atom:   17    charge:    4.0907    magn:    0.0189    constr:    0.0000
     atom:   18    charge:    4.0907    magn:    0.0189    constr:    0.0000
     atom:   19    charge:    4.0908    magn:    0.0188    constr:    0.0000
     atom:   20    charge:    4.0908    magn:    0.0188    constr:    0.0000

     total cpu time spent up to now is     1795.9 secs

     total energy              =   -5349.07956818 Ry
     Harris-Foulkes estimate   =   -5349.08015406 Ry
     estimated scf accuracy    <       0.00575485 Ry

     total magnetization       =    35.59 Bohr mag/cell
     absolute magnetization    =    37.00 Bohr mag/cell

     iteration # 13     ecut=   140.00 Ry     beta=0.40
     Davidson diagonalization with overlap
     ethr =  2.09E-06,  avg # of iterations =  4.2

     negative rho (up, down):  0.000E+00 5.675E-04
 
     Magnetic moment per site:
     atom:    1    charge:   12.8403    magn:    1.7938    constr:    0.0000
     atom:    2    charge:   12.8403    magn:    1.7938    constr:    0.0000
     atom:    3    charge:   12.8403    magn:    1.7938    constr:    0.0000
     atom:    4    charge:   12.8403    magn:    1.7938    constr:    0.0000
     atom:    5    charge:   12.8402    magn:    1.7931    constr:    0.0000
     atom:    6    charge:   12.8402    magn:    1.7931    constr:    0.0000
     atom:    7    charge:   12.8402    magn:    1.7931    constr:    0.0000
     atom:    8    charge:   12.8402    magn:    1.7931    constr:    0.0000
     atom:    9    charge:   12.8353    magn:    1.8957    constr:    0.0000
     atom:   10    charge:   12.8351    magn:    1.9002    constr:    0.0000
     atom:   11    charge:   12.8355    magn:    1.8968    constr:    0.0000
     atom:   12    charge:   12.8348    magn:    1.9007    constr:    0.0000
     atom:   13    charge:   12.7881    magn:    2.6100    constr:    0.0000
     atom:   14    charge:   12.7885    magn:    2.6105    constr:    0.0000
     atom:   15    charge:   12.7892    magn:    2.6103    constr:    0.0000
     atom:   16    charge:   12.7881    magn:    2.6103    constr:    0.0000
     atom:   17    charge:    4.0913    magn:    0.0197    constr:    0.0000
     atom:   18    charge:    4.0913    magn:    0.0197    constr:    0.0000
     atom:   19    charge:    4.0913    magn:    0.0196    constr:    0.0000
     atom:   20    charge:    4.0913    magn:    0.0196    constr:    0.0000

     total cpu time spent up to now is     1959.0 secs

     total energy              =   -5349.07963143 Ry
     Harris-Foulkes estimate   =   -5349.08222943 Ry
     estimated scf accuracy    <       0.03136145 Ry

     total magnetization       =    35.34 Bohr mag/cell
     absolute magnetization    =    36.73 Bohr mag/cell

     iteration # 14     ecut=   140.00 Ry     beta=0.40
     Davidson diagonalization with overlap
     ethr =  2.09E-06,  avg # of iterations =  2.9

     negative rho (up, down):  0.000E+00 5.518E-04
 
     Magnetic moment per site:
     atom:    1    charge:   12.8409    magn:    1.7727    constr:    0.0000
     atom:    2    charge:   12.8409    magn:    1.7727    constr:    0.0000
     atom:    3    charge:   12.8409    magn:    1.7727    constr:    0.0000
     atom:    4    charge:   12.8409    magn:    1.7727    constr:    0.0000
     atom:    5    charge:   12.8409    magn:    1.7720    constr:    0.0000
     atom:    6    charge:   12.8409    magn:    1.7720    constr:    0.0000
     atom:    7    charge:   12.8409    magn:    1.7720    constr:    0.0000
     atom:    8    charge:   12.8409    magn:    1.7720    constr:    0.0000
     atom:    9    charge:   12.8365    magn:    1.8848    constr:    0.0000
     atom:   10    charge:   12.8351    magn:    1.8878    constr:    0.0000
     atom:   11    charge:   12.8362    magn:    1.8856    constr:    0.0000
     atom:   12    charge:   12.8359    magn:    1.8881    constr:    0.0000
     atom:   13    charge:   12.7887    magn:    2.6190    constr:    0.0000
     atom:   14    charge:   12.7871    magn:    2.6206    constr:    0.0000
     atom:   15    charge:   12.7859    magn:    2.6216    constr:    0.0000
     atom:   16    charge:   12.7878    magn:    2.6198    constr:    0.0000
     atom:   17    charge:    4.0905    magn:    0.0211    constr:    0.0000
     atom:   18    charge:    4.0905    magn:    0.0211    constr:    0.0000
     atom:   19    charge:    4.0905    magn:    0.0210    constr:    0.0000
     atom:   20    charge:    4.0905    magn:    0.0210    constr:    0.0000

     total cpu time spent up to now is     2096.6 secs

     total energy              =   -5349.08148248 Ry
     Harris-Foulkes estimate   =   -5349.08148562 Ry
     estimated scf accuracy    <       0.00122209 Ry

     total magnetization       =    35.06 Bohr mag/cell
     absolute magnetization    =    36.43 Bohr mag/cell

     iteration # 15     ecut=   140.00 Ry     beta=0.40
     Davidson diagonalization with overlap
     ethr =  4.43E-07,  avg # of iterations =  3.1

     negative rho (up, down):  0.000E+00 5.383E-04
 
     Magnetic moment per site:
     atom:    1    charge:   12.8414    magn:    1.7546    constr:    0.0000
     atom:    2    charge:   12.8414    magn:    1.7546    constr:    0.0000
     atom:    3    charge:   12.8414    magn:    1.7546    constr:    0.0000
     atom:    4    charge:   12.8414    magn:    1.7546    constr:    0.0000
     atom:    5    charge:   12.8414    magn:    1.7536    constr:    0.0000
     atom:    6    charge:   12.8414    magn:    1.7536    constr:    0.0000
     atom:    7    charge:   12.8414    magn:    1.7536    constr:    0.0000
     atom:    8    charge:   12.8414    magn:    1.7536    constr:    0.0000
     atom:    9    charge:   12.8360    magn:    1.8781    constr:    0.0000
     atom:   10    charge:   12.8360    magn:    1.8791    constr:    0.0000
     atom:   11    charge:   12.8358    magn:    1.8789    constr:    0.0000
     atom:   12    charge:   12.8353    magn:    1.8799    constr:    0.0000
     atom:   13    charge:   12.7873    magn:    2.6308    constr:    0.0000
     atom:   14    charge:   12.7871    magn:    2.6313    constr:    0.0000
     atom:   15    charge:   12.7878    magn:    2.6310    constr:    0.0000
     atom:   16    charge:   12.7874    magn:    2.6307    constr:    0.0000
     atom:   17    charge:    4.0893    magn:    0.0226    constr:    0.0000
     atom:   18    charge:    4.0893    magn:    0.0226    constr:    0.0000
     atom:   19    charge:    4.0893    magn:    0.0225    constr:    0.0000
     atom:   20    charge:    4.0893    magn:    0.0225    constr:    0.0000

     total cpu time spent up to now is     2243.4 secs

     total energy              =   -5349.08169481 Ry
     Harris-Foulkes estimate   =   -5349.08182124 Ry
     estimated scf accuracy    <       0.00199615 Ry

     total magnetization       =    34.87 Bohr mag/cell
     absolute magnetization    =    36.24 Bohr mag/cell

     iteration # 16     ecut=   140.00 Ry     beta=0.40
     Davidson diagonalization with overlap
     ethr =  4.43E-07,  avg # of iterations =  1.5

     negative rho (up, down):  0.000E+00 5.399E-04
 
     Magnetic moment per site:
     atom:    1    charge:   12.8412    magn:    1.7526    constr:    0.0000
     atom:    2    charge:   12.8412    magn:    1.7526    constr:    0.0000
     atom:    3    charge:   12.8412    magn:    1.7526    constr:    0.0000
     atom:    4    charge:   12.8412    magn:    1.7526    constr:    0.0000
     atom:    5    charge:   12.8412    magn:    1.7518    constr:    0.0000
     atom:    6    charge:   12.8412    magn:    1.7518    constr:    0.0000
     atom:    7    charge:   12.8412    magn:    1.7518    constr:    0.0000
     atom:    8    charge:   12.8412    magn:    1.7518    constr:    0.0000
     atom:    9    charge:   12.8346    magn:    1.8792    constr:    0.0000
     atom:   10    charge:   12.8347    magn:    1.8802    constr:    0.0000
     atom:   11    charge:   12.8357    magn:    1.8795    constr:    0.0000
     atom:   12    charge:   12.8358    magn:    1.8802    constr:    0.0000
     atom:   13    charge:   12.7879    magn:    2.6311    constr:    0.0000
     atom:   14    charge:   12.7881    magn:    2.6313    constr:    0.0000
     atom:   15    charge:   12.7875    magn:    2.6319    constr:    0.0000
     atom:   16    charge:   12.7873    magn:    2.6316    constr:    0.0000
     atom:   17    charge:    4.0890    magn:    0.0223    constr:    0.0000
     atom:   18    charge:    4.0890    magn:    0.0223    constr:    0.0000
     atom:   19    charge:    4.0890    magn:    0.0223    constr:    0.0000
     atom:   20    charge:    4.0890    magn:    0.0223    constr:    0.0000

     total cpu time spent up to now is     2362.6 secs

     total energy              =   -5349.08187020 Ry
     Harris-Foulkes estimate   =   -5349.08189285 Ry
     estimated scf accuracy    <       0.00032234 Ry

     total magnetization       =    34.75 Bohr mag/cell
     absolute magnetization    =    36.10 Bohr mag/cell

     iteration # 17     ecut=   140.00 Ry     beta=0.40
     Davidson diagonalization with overlap
     ethr =  1.17E-07,  avg # of iterations =  2.8

     negative rho (up, down):  0.000E+00 5.399E-04
 
     Magnetic moment per site:
     atom:    1    charge:   12.8408    magn:    1.7468    constr:    0.0000
     atom:    2    charge:   12.8408    magn:    1.7468    constr:    0.0000
     atom:    3    charge:   12.8408    magn:    1.7468    constr:    0.0000
     atom:    4    charge:   12.8408    magn:    1.7468    constr:    0.0000
     atom:    5    charge:   12.8411    magn:    1.7459    constr:    0.0000
     atom:    6    charge:   12.8411    magn:    1.7459    constr:    0.0000
     atom:    7    charge:   12.8411    magn:    1.7459    constr:    0.0000
     atom:    8    charge:   12.8411    magn:    1.7459    constr:    0.0000
     atom:    9    charge:   12.8358    magn:    1.8759    constr:    0.0000
     atom:   10    charge:   12.8348    magn:    1.8770    constr:    0.0000
     atom:   11    charge:   12.8352    magn:    1.8766    constr:    0.0000
     atom:   12    charge:   12.8348    magn:    1.8774    constr:    0.0000
     atom:   13    charge:   12.7876    magn:    2.6310    constr:    0.0000
     atom:   14    charge:   12.7871    magn:    2.6317    constr:    0.0000
     atom:   15    charge:   12.7873    magn:    2.6318    constr:    0.0000
     atom:   16    charge:   12.7872    magn:    2.6315    constr:    0.0000
     atom:   17    charge:    4.0890    magn:    0.0218    constr:    0.0000
     atom:   18    charge:    4.0890    magn:    0.0218    constr:    0.0000
     atom:   19    charge:    4.0890    magn:    0.0217    constr:    0.0000
     atom:   20    charge:    4.0890    magn:    0.0217    constr:    0.0000

     total cpu time spent up to now is     2504.4 secs

     total energy              =   -5349.08189680 Ry
     Harris-Foulkes estimate   =   -5349.08197526 Ry
     estimated scf accuracy    <       0.00121819 Ry

     total magnetization       =    34.76 Bohr mag/cell
     absolute magnetization    =    36.10 Bohr mag/cell

     iteration # 18     ecut=   140.00 Ry     beta=0.40
     Davidson diagonalization with overlap
     ethr =  1.17E-07,  avg # of iterations =  2.1

     negative rho (up, down):  0.000E+00 5.344E-04
 
     Magnetic moment per site:
     atom:    1    charge:   12.8410    magn:    1.7345    constr:    0.0000
     atom:    2    charge:   12.8410    magn:    1.7345    constr:    0.0000
     atom:    3    charge:   12.8410    magn:    1.7345    constr:    0.0000
     atom:    4    charge:   12.8410    magn:    1.7345    constr:    0.0000
     atom:    5    charge:   12.8411    magn:    1.7337    constr:    0.0000
     atom:    6    charge:   12.8411    magn:    1.7337    constr:    0.0000
     atom:    7    charge:   12.8411    magn:    1.7337    constr:    0.0000
     atom:    8    charge:   12.8411    magn:    1.7337    constr:    0.0000
     atom:    9    charge:   12.8353    magn:    1.8713    constr:    0.0000
     atom:   10    charge:   12.8353    magn:    1.8712    constr:    0.0000
     atom:   11    charge:   12.8355    magn:    1.8715    constr:    0.0000
     atom:   12    charge:   12.8356    magn:    1.8715    constr:    0.0000
     atom:   13    charge:   12.7864    magn:    2.6360    constr:    0.0000
     atom:   14    charge:   12.7865    magn:    2.6363    constr:    0.0000
     atom:   15    charge:   12.7868    magn:    2.6364    constr:    0.0000
     atom:   16    charge:   12.7867    magn:    2.6361    constr:    0.0000
     atom:   17    charge:    4.0885    magn:    0.0219    constr:    0.0000
     atom:   18    charge:    4.0885    magn:    0.0219    constr:    0.0000
     atom:   19    charge:    4.0885    magn:    0.0218    constr:    0.0000
     atom:   20    charge:    4.0885    magn:    0.0218    constr:    0.0000

     total cpu time spent up to now is     2631.5 secs

     total energy              =   -5349.08195487 Ry
     Harris-Foulkes estimate   =   -5349.08199419 Ry
     estimated scf accuracy    <       0.00078164 Ry

     total magnetization       =    34.71 Bohr mag/cell
     absolute magnetization    =    36.05 Bohr mag/cell

     iteration # 19     ecut=   140.00 Ry     beta=0.40
     Davidson diagonalization with overlap
     ethr =  1.17E-07,  avg # of iterations =  1.8

     negative rho (up, down):  0.000E+00 5.323E-04
 
     Magnetic moment per site:
     atom:    1    charge:   12.8410    magn:    1.7286    constr:    0.0000
     atom:    2    charge:   12.8410    magn:    1.7286    constr:    0.0000
     atom:    3    charge:   12.8410    magn:    1.7286    constr:    0.0000
     atom:    4    charge:   12.8410    magn:    1.7286    constr:    0.0000
     atom:    5    charge:   12.8412    magn:    1.7279    constr:    0.0000
     atom:    6    charge:   12.8412    magn:    1.7279    constr:    0.0000
     atom:    7    charge:   12.8412    magn:    1.7279    constr:    0.0000
     atom:    8    charge:   12.8412    magn:    1.7279    constr:    0.0000
     atom:    9    charge:   12.8353    magn:    1.8688    constr:    0.0000
     atom:   10    charge:   12.8354    magn:    1.8682    constr:    0.0000
     atom:   11    charge:   12.8344    magn:    1.8692    constr:    0.0000
     atom:   12    charge:   12.8351    magn:    1.8688    constr:    0.0000
     atom:   13    charge:   12.7865    magn:    2.6369    constr:    0.0000
     atom:   14    charge:   12.7869    magn:    2.6370    constr:    0.0000
     atom:   15    charge:   12.7863    magn:    2.6377    constr:    0.0000
     atom:   16    charge:   12.7870    magn:    2.6368    constr:    0.0000
     atom:   17    charge:    4.0885    magn:    0.0217    constr:    0.0000
     atom:   18    charge:    4.0885    magn:    0.0217    constr:    0.0000
     atom:   19    charge:    4.0885    magn:    0.0216    constr:    0.0000
     atom:   20    charge:    4.0885    magn:    0.0216    constr:    0.0000

     total cpu time spent up to now is     2759.7 secs

     total energy              =   -5349.08202093 Ry
     Harris-Foulkes estimate   =   -5349.08203077 Ry
     estimated scf accuracy    <       0.00018248 Ry

     total magnetization       =    34.60 Bohr mag/cell
     absolute magnetization    =    35.94 Bohr mag/cell

     iteration # 20     ecut=   140.00 Ry     beta=0.40
     Davidson diagonalization with overlap
     ethr =  6.61E-08,  avg # of iterations =  2.1

     negative rho (up, down):  0.000E+00 5.328E-04
 
     Magnetic moment per site:
     atom:    1    charge:   12.8410    magn:    1.7211    constr:    0.0000
     atom:    2    charge:   12.8410    magn:    1.7211    constr:    0.0000
     atom:    3    charge:   12.8410    magn:    1.7211    constr:    0.0000
     atom:    4    charge:   12.8410    magn:    1.7211    constr:    0.0000
     atom:    5    charge:   12.8412    magn:    1.7206    constr:    0.0000
     atom:    6    charge:   12.8412    magn:    1.7206    constr:    0.0000
     atom:    7    charge:   12.8412    magn:    1.7206    constr:    0.0000
     atom:    8    charge:   12.8412    magn:    1.7206    constr:    0.0000
     atom:    9    charge:   12.8347    magn:    1.8672    constr:    0.0000
     atom:   10    charge:   12.8349    magn:    1.8662    constr:    0.0000
     atom:   11    charge:   12.8352    magn:    1.8670    constr:    0.0000
     atom:   12    charge:   12.8347    magn:    1.8666    constr:    0.0000
     atom:   13    charge:   12.7863    magn:    2.6378    constr:    0.0000
     atom:   14    charge:   12.7863    magn:    2.6380    constr:    0.0000
     atom:   15    charge:   12.7862    magn:    2.6382    constr:    0.0000
     atom:   16    charge:   12.7863    magn:    2.6379    constr:    0.0000
     atom:   17    charge:    4.0885    magn:    0.0209    constr:    0.0000
     atom:   18    charge:    4.0885    magn:    0.0209    constr:    0.0000
     atom:   19    charge:    4.0885    magn:    0.0209    constr:    0.0000
     atom:   20    charge:    4.0885    magn:    0.0209    constr:    0.0000

     total cpu time spent up to now is     2887.1 secs

     total energy              =   -5349.08202818 Ry
     Harris-Foulkes estimate   =   -5349.08207384 Ry
     estimated scf accuracy    <       0.00076388 Ry

     total magnetization       =    34.56 Bohr mag/cell
     absolute magnetization    =    35.90 Bohr mag/cell

     iteration # 21     ecut=   140.00 Ry     beta=0.40
     Davidson diagonalization with overlap
     ethr =  6.61E-08,  avg # of iterations =  2.1

     negative rho (up, down):  0.000E+00 5.322E-04
 
     Magnetic moment per site:
     atom:    1    charge:   12.8413    magn:    1.7161    constr:    0.0000
     atom:    2    charge:   12.8413    magn:    1.7161    constr:    0.0000
     atom:    3    charge:   12.8413    magn:    1.7161    constr:    0.0000
     atom:    4    charge:   12.8413    magn:    1.7161    constr:    0.0000
     atom:    5    charge:   12.8410    magn:    1.7157    constr:    0.0000
     atom:    6    charge:   12.8410    magn:    1.7157    constr:    0.0000
     atom:    7    charge:   12.8410    magn:    1.7157    constr:    0.0000
     atom:    8    charge:   12.8410    magn:    1.7157    constr:    0.0000
     atom:    9    charge:   12.8350    magn:    1.8651    constr:    0.0000
     atom:   10    charge:   12.8348    magn:    1.8642    constr:    0.0000
     atom:   11    charge:   12.8347    magn:    1.8650    constr:    0.0000
     atom:   12    charge:   12.8353    magn:    1.8643    constr:    0.0000
     atom:   13    charge:   12.7865    magn:    2.6376    constr:    0.0000
     atom:   14    charge:   12.7862    magn:    2.6379    constr:    0.0000
     atom:   15    charge:   12.7865    magn:    2.6379    constr:    0.0000
     atom:   16    charge:   12.7863    magn:    2.6378    constr:    0.0000
     atom:   17    charge:    4.0882    magn:    0.0204    constr:    0.0000
     atom:   18    charge:    4.0882    magn:    0.0204    constr:    0.0000
     atom:   19    charge:    4.0882    magn:    0.0203    constr:    0.0000
     atom:   20    charge:    4.0882    magn:    0.0203    constr:    0.0000

     total cpu time spent up to now is     3017.6 secs

     total energy              =   -5349.08206733 Ry
     Harris-Foulkes estimate   =   -5349.08208406 Ry
     estimated scf accuracy    <       0.00024177 Ry

     total magnetization       =    34.50 Bohr mag/cell
     absolute magnetization    =    35.83 Bohr mag/cell

     iteration # 22     ecut=   140.00 Ry     beta=0.40
     Davidson diagonalization with overlap
     ethr =  6.61E-08,  avg # of iterations =  1.4

     negative rho (up, down):  0.000E+00 5.370E-04
 
     Magnetic moment per site:
     atom:    1    charge:   12.8409    magn:    1.7244    constr:    0.0000
     atom:    2    charge:   12.8409    magn:    1.7244    constr:    0.0000
     atom:    3    charge:   12.8409    magn:    1.7244    constr:    0.0000
     atom:    4    charge:   12.8409    magn:    1.7244    constr:    0.0000
     atom:    5    charge:   12.8407    magn:    1.7240    constr:    0.0000
     atom:    6    charge:   12.8407    magn:    1.7240    constr:    0.0000
     atom:    7    charge:   12.8407    magn:    1.7240    constr:    0.0000
     atom:    8    charge:   12.8407    magn:    1.7240    constr:    0.0000
     atom:    9    charge:   12.8349    magn:    1.8689    constr:    0.0000
     atom:   10    charge:   12.8356    magn:    1.8684    constr:    0.0000
     atom:   11    charge:   12.8354    magn:    1.8688    constr:    0.0000
     atom:   12    charge:   12.8349    magn:    1.8689    constr:    0.0000
     atom:   13    charge:   12.7871    magn:    2.6338    constr:    0.0000
     atom:   14    charge:   12.7868    magn:    2.6342    constr:    0.0000
     atom:   15    charge:   12.7866    magn:    2.6344    constr:    0.0000
     atom:   16    charge:   12.7869    magn:    2.6340    constr:    0.0000
     atom:   17    charge:    4.0885    magn:    0.0200    constr:    0.0000
     atom:   18    charge:    4.0885    magn:    0.0200    constr:    0.0000
     atom:   19    charge:    4.0885    magn:    0.0200    constr:    0.0000
     atom:   20    charge:    4.0885    magn:    0.0200    constr:    0.0000

     total cpu time spent up to now is     3136.4 secs

     total energy              =   -5349.08204303 Ry
     Harris-Foulkes estimate   =   -5349.08209484 Ry
     estimated scf accuracy    <       0.00022391 Ry

     total magnetization       =    34.47 Bohr mag/cell
     absolute magnetization    =    35.80 Bohr mag/cell

     iteration # 23     ecut=   140.00 Ry     beta=0.40
     Davidson diagonalization with overlap
     ethr =  6.61E-08,  avg # of iterations =  2.0

     negative rho (up, down):  0.000E+00 5.323E-04
 
     Magnetic moment per site:
     atom:    1    charge:   12.8409    magn:    1.7125    constr:    0.0000
     atom:    2    charge:   12.8409    magn:    1.7125    constr:    0.0000
     atom:    3    charge:   12.8409    magn:    1.7125    constr:    0.0000
     atom:    4    charge:   12.8409    magn:    1.7125    constr:    0.0000
     atom:    5    charge:   12.8410    magn:    1.7121    constr:    0.0000
     atom:    6    charge:   12.8410    magn:    1.7121    constr:    0.0000
     atom:    7    charge:   12.8410    magn:    1.7121    constr:    0.0000
     atom:    8    charge:   12.8410    magn:    1.7121    constr:    0.0000
     atom:    9    charge:   12.8350    magn:    1.8643    constr:    0.0000
     atom:   10    charge:   12.8349    magn:    1.8632    constr:    0.0000
     atom:   11    charge:   12.8350    magn:    1.8640    constr:    0.0000
     atom:   12    charge:   12.8351    magn:    1.8634    constr:    0.0000
     atom:   13    charge:   12.7862    magn:    2.6375    constr:    0.0000
     atom:   14    charge:   12.7864    magn:    2.6375    constr:    0.0000
     atom:   15    charge:   12.7864    magn:    2.6376    constr:    0.0000
     atom:   16    charge:   12.7864    magn:    2.6375    constr:    0.0000
     atom:   17    charge:    4.0882    magn:    0.0198    constr:    0.0000
     atom:   18    charge:    4.0882    magn:    0.0198    constr:    0.0000
     atom:   19    charge:    4.0882    magn:    0.0198    constr:    0.0000
     atom:   20    charge:    4.0882    magn:    0.0198    constr:    0.0000

     total cpu time spent up to now is     3265.4 secs

     total energy              =   -5349.08204569 Ry
     Harris-Foulkes estimate   =   -5349.08209276 Ry
     estimated scf accuracy    <       0.00040537 Ry

     total magnetization       =    34.54 Bohr mag/cell
     absolute magnetization    =    35.87 Bohr mag/cell

     iteration # 24     ecut=   140.00 Ry     beta=0.40
     Davidson diagonalization with overlap
     ethr =  6.61E-08,  avg # of iterations =  1.8

     negative rho (up, down):  0.000E+00 5.325E-04
 
     Magnetic moment per site:
     atom:    1    charge:   12.8410    magn:    1.7085    constr:    0.0000
     atom:    2    charge:   12.8410    magn:    1.7085    constr:    0.0000
     atom:    3    charge:   12.8410    magn:    1.7085    constr:    0.0000
[...]
     Davidson diagonalization with overlap
     ethr =  2.17E-09,  avg # of iterations =  1.8

     negative rho (up, down):  0.000E+00 2.622E-04
 
     Magnetic moment per site:
     atom:    1    charge:   12.7111    magn:    1.3012    constr:    0.0000
     atom:    2    charge:   12.7111    magn:    1.3012    constr:    0.0000
     atom:    3    charge:   12.7111    magn:    1.3012    constr:    0.0000
     atom:    4    charge:   12.7111    magn:    1.3012    constr:    0.0000
     atom:    5    charge:   12.7112    magn:    1.3013    constr:    0.0000
     atom:    6    charge:   12.7112    magn:    1.3013    constr:    0.0000
     atom:    7    charge:   12.7112    magn:    1.3013    constr:    0.0000
     atom:    8    charge:   12.7112    magn:    1.3013    constr:    0.0000
     atom:    9    charge:   12.7058    magn:    1.4954    constr:    0.0000
     atom:   10    charge:   12.7057    magn:    1.4954    constr:    0.0000
     atom:   11    charge:   12.7057    magn:    1.4954    constr:    0.0000
     atom:   12    charge:   12.7057    magn:    1.4954    constr:    0.0000
     atom:   13    charge:   12.6477    magn:    2.5790    constr:    0.0000
     atom:   14    charge:   12.6478    magn:    2.5790    constr:    0.0000
     atom:   15    charge:   12.6477    magn:    2.5790    constr:    0.0000
     atom:   16    charge:   12.6478    magn:    2.5790    constr:    0.0000
     atom:   17    charge:    4.0153    magn:   -0.0073    constr:    0.0000
     atom:   18    charge:    4.0153    magn:   -0.0073    constr:    0.0000
     atom:   19    charge:    4.0154    magn:   -0.0073    constr:    0.0000
     atom:   20    charge:    4.0154    magn:   -0.0073    constr:    0.0000

     total cpu time spent up to now is    16668.9 secs

     total energy              =   -5348.91951507 Ry
     Harris-Foulkes estimate   =   -5348.91951531 Ry
     estimated scf accuracy    <       0.00000749 Ry

     total magnetization       =    29.26 Bohr mag/cell
     absolute magnetization    =    30.40 Bohr mag/cell

     iteration # 75     ecut=   140.00 Ry     beta=0.40
     Davidson diagonalization with overlap
     ethr =  2.17E-09,  avg # of iterations =  1.6

     negative rho (up, down):  0.000E+00 2.624E-04
 
     Magnetic moment per site:
     atom:    1    charge:   12.7112    magn:    1.3003    constr:    0.0000
     atom:    2    charge:   12.7112    magn:    1.3003    constr:    0.0000
     atom:    3    charge:   12.7112    magn:    1.3003    constr:    0.0000
     atom:    4    charge:   12.7112    magn:    1.3003    constr:    0.0000
     atom:    5    charge:   12.7111    magn:    1.3004    constr:    0.0000
     atom:    6    charge:   12.7111    magn:    1.3004    constr:    0.0000
     atom:    7    charge:   12.7111    magn:    1.3004    constr:    0.0000
     atom:    8    charge:   12.7111    magn:    1.3004    constr:    0.0000
     atom:    9    charge:   12.7057    magn:    1.4962    constr:    0.0000
     atom:   10    charge:   12.7057    magn:    1.4962    constr:    0.0000
     atom:   11    charge:   12.7057    magn:    1.4962    constr:    0.0000
     atom:   12    charge:   12.7058    magn:    1.4962    constr:    0.0000
     atom:   13    charge:   12.6478    magn:    2.5790    constr:    0.0000
     atom:   14    charge:   12.6477    magn:    2.5790    constr:    0.0000
     atom:   15    charge:   12.6478    magn:    2.5790    constr:    0.0000
     atom:   16    charge:   12.6478    magn:    2.5790    constr:    0.0000
     atom:   17    charge:    4.0153    magn:   -0.0073    constr:    0.0000
     atom:   18    charge:    4.0153    magn:   -0.0073    constr:    0.0000
     atom:   19    charge:    4.0153    magn:   -0.0073    constr:    0.0000
     atom:   20    charge:    4.0153    magn:   -0.0073    constr:    0.0000

     total cpu time spent up to now is    16789.6 secs

     total energy              =   -5348.91951404 Ry
     Harris-Foulkes estimate   =   -5348.91951624 Ry
     estimated scf accuracy    <       0.00001307 Ry

     total magnetization       =    29.27 Bohr mag/cell
     absolute magnetization    =    30.41 Bohr mag/cell

     iteration # 76     ecut=   140.00 Ry     beta=0.40
     Davidson diagonalization with overlap
     ethr =  2.17E-09,  avg # of iterations =  2.0

     negative rho (up, down):  0.000E+00 2.622E-04
 
     Magnetic moment per site:
     atom:    1    charge:   12.7111    magn:    1.3014    constr:    0.0000
     atom:    2    charge:   12.7111    magn:    1.3014    constr:    0.0000
     atom:    3    charge:   12.7111    magn:    1.3014    constr:    0.0000
     atom:    4    charge:   12.7111    magn:    1.3014    constr:    0.0000
     atom:    5    charge:   12.7112    magn:    1.3015    constr:    0.0000
     atom:    6    charge:   12.7112    magn:    1.3015    constr:    0.0000
     atom:    7    charge:   12.7112    magn:    1.3015    constr:    0.0000
     atom:    8    charge:   12.7112    magn:    1.3015    constr:    0.0000
     atom:    9    charge:   12.7057    magn:    1.4953    constr:    0.0000
     atom:   10    charge:   12.7057    magn:    1.4953    constr:    0.0000
     atom:   11    charge:   12.7057    magn:    1.4953    constr:    0.0000
     atom:   12    charge:   12.7057    magn:    1.4953    constr:    0.0000
     atom:   13    charge:   12.6478    magn:    2.5790    constr:    0.0000
     atom:   14    charge:   12.6477    magn:    2.5791    constr:    0.0000
     atom:   15    charge:   12.6478    magn:    2.5790    constr:    0.0000
     atom:   16    charge:   12.6478    magn:    2.5790    constr:    0.0000
     atom:   17    charge:    4.0153    magn:   -0.0073    constr:    0.0000
     atom:   18    charge:    4.0153    magn:   -0.0073    constr:    0.0000
     atom:   19    charge:    4.0154    magn:   -0.0073    constr:    0.0000
     atom:   20    charge:    4.0154    magn:   -0.0073    constr:    0.0000

     total cpu time spent up to now is    16915.4 secs

     total energy              =   -5348.91951480 Ry
     Harris-Foulkes estimate   =   -5348.91951579 Ry
     estimated scf accuracy    <       0.00001585 Ry

     total magnetization       =    29.27 Bohr mag/cell
     absolute magnetization    =    30.40 Bohr mag/cell

     iteration # 77     ecut=   140.00 Ry     beta=0.40
     Davidson diagonalization with overlap
     ethr =  2.17E-09,  avg # of iterations =  1.4

     negative rho (up, down):  0.000E+00 2.623E-04
 
     Magnetic moment per site:
     atom:    1    charge:   12.7111    magn:    1.3008    constr:    0.0000
     atom:    2    charge:   12.7111    magn:    1.3008    constr:    0.0000
     atom:    3    charge:   12.7111    magn:    1.3008    constr:    0.0000
     atom:    4    charge:   12.7111    magn:    1.3008    constr:    0.0000
     atom:    5    charge:   12.7111    magn:    1.3009    constr:    0.0000
     atom:    6    charge:   12.7111    magn:    1.3009    constr:    0.0000
     atom:    7    charge:   12.7111    magn:    1.3009    constr:    0.0000
     atom:    8    charge:   12.7111    magn:    1.3009    constr:    0.0000
     atom:    9    charge:   12.7057    magn:    1.4958    constr:    0.0000
     atom:   10    charge:   12.7058    magn:    1.4957    constr:    0.0000
     atom:   11    charge:   12.7057    magn:    1.4958    constr:    0.0000
     atom:   12    charge:   12.7057    magn:    1.4958    constr:    0.0000
     atom:   13    charge:   12.6478    magn:    2.5790    constr:    0.0000
     atom:   14    charge:   12.6478    magn:    2.5790    constr:    0.0000
     atom:   15    charge:   12.6478    magn:    2.5790    constr:    0.0000
     atom:   16    charge:   12.6477    magn:    2.5791    constr:    0.0000
     atom:   17    charge:    4.0153    magn:   -0.0073    constr:    0.0000
     atom:   18    charge:    4.0153    magn:   -0.0073    constr:    0.0000
     atom:   19    charge:    4.0154    magn:   -0.0073    constr:    0.0000
     atom:   20    charge:    4.0154    magn:   -0.0073    constr:    0.0000

     total cpu time spent up to now is    17033.5 secs

     total energy              =   -5348.91951504 Ry
     Harris-Foulkes estimate   =   -5348.91951587 Ry
     estimated scf accuracy    <       0.00000366 Ry

     total magnetization       =    29.27 Bohr mag/cell
     absolute magnetization    =    30.41 Bohr mag/cell

     iteration # 78     ecut=   140.00 Ry     beta=0.40
     Davidson diagonalization with overlap
     ethr =  1.33E-09,  avg # of iterations =  1.6

     negative rho (up, down):  0.000E+00 2.622E-04
 
     Magnetic moment per site:
     atom:    1    charge:   12.7112    magn:    1.3013    constr:    0.0000
     atom:    2    charge:   12.7112    magn:    1.3013    constr:    0.0000
     atom:    3    charge:   12.7112    magn:    1.3013    constr:    0.0000
     atom:    4    charge:   12.7112    magn:    1.3013    constr:    0.0000
     atom:    5    charge:   12.7111    magn:    1.3014    constr:    0.0000
     atom:    6    charge:   12.7111    magn:    1.3014    constr:    0.0000
     atom:    7    charge:   12.7111    magn:    1.3014    constr:    0.0000
     atom:    8    charge:   12.7111    magn:    1.3014    constr:    0.0000
     atom:    9    charge:   12.7057    magn:    1.4953    constr:    0.0000
     atom:   10    charge:   12.7057    magn:    1.4953    constr:    0.0000
     atom:   11    charge:   12.7057    magn:    1.4953    constr:    0.0000
     atom:   12    charge:   12.7057    magn:    1.4953    constr:    0.0000
     atom:   13    charge:   12.6477    magn:    2.5790    constr:    0.0000
     atom:   14    charge:   12.6478    magn:    2.5790    constr:    0.0000
     atom:   15    charge:   12.6478    magn:    2.5790    constr:    0.0000
     atom:   16    charge:   12.6477    magn:    2.5790    constr:    0.0000
     atom:   17    charge:    4.0153    magn:   -0.0073    constr:    0.0000
     atom:   18    charge:    4.0153    magn:   -0.0073    constr:    0.0000
     atom:   19    charge:    4.0154    magn:   -0.0073    constr:    0.0000
     atom:   20    charge:    4.0154    magn:   -0.0073    constr:    0.0000

     total cpu time spent up to now is    17153.8 secs

     total energy              =   -5348.91951530 Ry
     Harris-Foulkes estimate   =   -5348.91951572 Ry
     estimated scf accuracy    <       0.00000671 Ry

     total magnetization       =    29.27 Bohr mag/cell
     absolute magnetization    =    30.41 Bohr mag/cell

     iteration # 79     ecut=   140.00 Ry     beta=0.40
     Davidson diagonalization with overlap
     ethr =  1.33E-09,  avg # of iterations =  1.2

     negative rho (up, down):  0.000E+00 2.622E-04
 
     Magnetic moment per site:
     atom:    1    charge:   12.7111    magn:    1.3014    constr:    0.0000
     atom:    2    charge:   12.7111    magn:    1.3014    constr:    0.0000
     atom:    3    charge:   12.7111    magn:    1.3014    constr:    0.0000
     atom:    4    charge:   12.7111    magn:    1.3014    constr:    0.0000
     atom:    5    charge:   12.7111    magn:    1.3015    constr:    0.0000
     atom:    6    charge:   12.7111    magn:    1.3015    constr:    0.0000
     atom:    7    charge:   12.7111    magn:    1.3015    constr:    0.0000
     atom:    8    charge:   12.7111    magn:    1.3015    constr:    0.0000
     atom:    9    charge:   12.7057    magn:    1.4953    constr:    0.0000
     atom:   10    charge:   12.7057    magn:    1.4953    constr:    0.0000
     atom:   11    charge:   12.7057    magn:    1.4953    constr:    0.0000
     atom:   12    charge:   12.7057    magn:    1.4953    constr:    0.0000
     atom:   13    charge:   12.6477    magn:    2.5790    constr:    0.0000
     atom:   14    charge:   12.6477    magn:    2.5790    constr:    0.0000
     atom:   15    charge:   12.6477    magn:    2.5790    constr:    0.0000
     atom:   16    charge:   12.6478    magn:    2.5790    constr:    0.0000
     atom:   17    charge:    4.0153    magn:   -0.0073    constr:    0.0000
     atom:   18    charge:    4.0153    magn:   -0.0073    constr:    0.0000
     atom:   19    charge:    4.0154    magn:   -0.0073    constr:    0.0000
     atom:   20    charge:    4.0154    magn:   -0.0073    constr:    0.0000

     total cpu time spent up to now is    17270.4 secs

     total energy              =   -5348.91951563 Ry
     Harris-Foulkes estimate   =   -5348.91951574 Ry
     estimated scf accuracy    <       0.00000169 Ry

     total magnetization       =    29.27 Bohr mag/cell
     absolute magnetization    =    30.41 Bohr mag/cell

     iteration # 80     ecut=   140.00 Ry     beta=0.40
     Davidson diagonalization with overlap
     ethr =  6.11E-10,  avg # of iterations =  1.0

     negative rho (up, down):  0.000E+00 2.621E-04
 
     Magnetic moment per site:
     atom:    1    charge:   12.7111    magn:    1.3019    constr:    0.0000
     atom:    2    charge:   12.7111    magn:    1.3019    constr:    0.0000
     atom:    3    charge:   12.7111    magn:    1.3019    constr:    0.0000
     atom:    4    charge:   12.7111    magn:    1.3019    constr:    0.0000
     atom:    5    charge:   12.7111    magn:    1.3020    constr:    0.0000
     atom:    6    charge:   12.7111    magn:    1.3020    constr:    0.0000
     atom:    7    charge:   12.7111    magn:    1.3020    constr:    0.0000
     atom:    8    charge:   12.7111    magn:    1.3020    constr:    0.0000
     atom:    9    charge:   12.7058    magn:    1.4948    constr:    0.0000
     atom:   10    charge:   12.7057    magn:    1.4949    constr:    0.0000
     atom:   11    charge:   12.7057    magn:    1.4948    constr:    0.0000
     atom:   12    charge:   12.7058    magn:    1.4948    constr:    0.0000
     atom:   13    charge:   12.6478    magn:    2.5790    constr:    0.0000
     atom:   14    charge:   12.6478    magn:    2.5790    constr:    0.0000
     atom:   15    charge:   12.6477    magn:    2.5790    constr:    0.0000
     atom:   16    charge:   12.6477    magn:    2.5790    constr:    0.0000
     atom:   17    charge:    4.0153    magn:   -0.0073    constr:    0.0000
     atom:   18    charge:    4.0153    magn:   -0.0073    constr:    0.0000
     atom:   19    charge:    4.0154    magn:   -0.0073    constr:    0.0000
     atom:   20    charge:    4.0154    magn:   -0.0073    constr:    0.0000

     total cpu time spent up to now is    17384.4 secs

     total energy              =   -5348.91951577 Ry
     Harris-Foulkes estimate   =   -5348.91951574 Ry
     estimated scf accuracy    <       0.00000102 Ry

     total magnetization       =    29.27 Bohr mag/cell
     absolute magnetization    =    30.41 Bohr mag/cell

     End of self-consistent calculation

     convergence NOT achieved after  80 iterations: stopping

     Writing output data file aiida.save

 %%%%%%%%%%%%%%%%%%%%%%%%%%%%%%%%%%%%%%%%%%%%%%%%%%%%%%%%%%%%%%%%%%%%%%%%%%%%%%
     Error in routine davcio (10):
     error while writing from file "/kyukon/scratch/gent/437/vsc43752/compmathphys/task4/./out/aiida.wfc19"
 %%%%%%%%%%%%%%%%%%%%%%%%%%%%%%%%%%%%%%%%%%%%%%%%%%%%%%%%%%%%%%%%%%%%%%%%%%%%%%

     stopping ...

 %%%%%%%%%%%%%%%%%%%%%%%%%%%%%%%%%%%%%%%%%%%%%%%%%%%%%%%%%%%%%%%%%%%%%%%%%%%%%%
     Error in routine davcio (10):
     error while writing from file "/kyukon/scratch/gent/437/vsc43752/compmathphys/task4/./out/aiida.wfc9"
 %%%%%%%%%%%%%%%%%%%%%%%%%%%%%%%%%%%%%%%%%%%%%%%%%%%%%%%%%%%%%%%%%%%%%%%%%%%%%%

     stopping ...

 %%%%%%%%%%%%%%%%%%%%%%%%%%%%%%%%%%%%%%%%%%%%%%%%%%%%%%%%%%%%%%%%%%%%%%%%%%%%%%
     Error in routine davcio (10):
     error while writing from file "/kyukon/scratch/gent/437/vsc43752/compmathphys/task4/./out/aiida.wfc2"
 %%%%%%%%%%%%%%%%%%%%%%%%%%%%%%%%%%%%%%%%%%%%%%%%%%%%%%%%%%%%%%%%%%%%%%%%%%%%%%

     stopping ...

 %%%%%%%%%%%%%%%%%%%%%%%%%%%%%%%%%%%%%%%%%%%%%%%%%%%%%%%%%%%%%%%%%%%%%%%%%%%%%%
     Error in routine davcio (10):
     error while writing from file "/kyukon/scratch/gent/437/vsc43752/compmathphys/task4/./out/aiida.wfc15"
 %%%%%%%%%%%%%%%%%%%%%%%%%%%%%%%%%%%%%%%%%%%%%%%%%%%%%%%%%%%%%%%%%%%%%%%%%%%%%%

     stopping ...

 %%%%%%%%%%%%%%%%%%%%%%%%%%%%%%%%%%%%%%%%%%%%%%%%%%%%%%%%%%%%%%%%%%%%%%%%%%%%%%
     Error in routine davcio (10):
     error while writing from file "/kyukon/scratch/gent/437/vsc43752/compmathphys/task4/./out/aiida.wfc7"
 %%%%%%%%%%%%%%%%%%%%%%%%%%%%%%%%%%%%%%%%%%%%%%%%%%%%%%%%%%%%%%%%%%%%%%%%%%%%%%

     stopping ...

 %%%%%%%%%%%%%%%%%%%%%%%%%%%%%%%%%%%%%%%%%%%%%%%%%%%%%%%%%%%%%%%%%%%%%%%%%%%%%%
     Error in routine davcio (10):
     error while writing from file "/kyukon/scratch/gent/437/vsc43752/compmathphys/task4/./out/aiida.wfc23"
 %%%%%%%%%%%%%%%%%%%%%%%%%%%%%%%%%%%%%%%%%%%%%%%%%%%%%%%%%%%%%%%%%%%%%%%%%%%%%%

     stopping ...

 %%%%%%%%%%%%%%%%%%%%%%%%%%%%%%%%%%%%%%%%%%%%%%%%%%%%%%%%%%%%%%%%%%%%%%%%%%%%%%
     Error in routine davcio (10):
     error while writing from file "/kyukon/scratch/gent/437/vsc43752/compmathphys/task4/./out/aiida.wfc11"
 %%%%%%%%%%%%%%%%%%%%%%%%%%%%%%%%%%%%%%%%%%%%%%%%%%%%%%%%%%%%%%%%%%%%%%%%%%%%%%

     stopping ...

 %%%%%%%%%%%%%%%%%%%%%%%%%%%%%%%%%%%%%%%%%%%%%%%%%%%%%%%%%%%%%%%%%%%%%%%%%%%%%%
     Error in routine davcio (10):
     error while writing from file "/kyukon/scratch/gent/437/vsc43752/compmathphys/task4/./out/aiida.wfc18"
 %%%%%%%%%%%%%%%%%%%%%%%%%%%%%%%%%%%%%%%%%%%%%%%%%%%%%%%%%%%%%%%%%%%%%%%%%%%%%%

     stopping ...

 %%%%%%%%%%%%%%%%%%%%%%%%%%%%%%%%%%%%%%%%%%%%%%%%%%%%%%%%%%%%%%%%%%%%%%%%%%%%%%
     Error in routine davcio (10):
     error while writing from file "/kyukon/scratch/gent/437/vsc43752/compmathphys/task4/./out/aiida.wfc6"
 %%%%%%%%%%%%%%%%%%%%%%%%%%%%%%%%%%%%%%%%%%%%%%%%%%%%%%%%%%%%%%%%%%%%%%%%%%%%%%

     stopping ...

 %%%%%%%%%%%%%%%%%%%%%%%%%%%%%%%%%%%%%%%%%%%%%%%%%%%%%%%%%%%%%%%%%%%%%%%%%%%%%%
     Error in routine davcio (10):
     error while writing from file "/kyukon/scratch/gent/437/vsc43752/compmathphys/task4/./out/aiida.wfc24"
 %%%%%%%%%%%%%%%%%%%%%%%%%%%%%%%%%%%%%%%%%%%%%%%%%%%%%%%%%%%%%%%%%%%%%%%%%%%%%%

     stopping ...

 %%%%%%%%%%%%%%%%%%%%%%%%%%%%%%%%%%%%%%%%%%%%%%%%%%%%%%%%%%%%%%%%%%%%%%%%%%%%%%
     Error in routine davcio (10):
     error while writing from file "/kyukon/scratch/gent/437/vsc43752/compmathphys/task4/./out/aiida.wfc1"
 %%%%%%%%%%%%%%%%%%%%%%%%%%%%%%%%%%%%%%%%%%%%%%%%%%%%%%%%%%%%%%%%%%%%%%%%%%%%%%

     stopping ...

 %%%%%%%%%%%%%%%%%%%%%%%%%%%%%%%%%%%%%%%%%%%%%%%%%%%%%%%%%%%%%%%%%%%%%%%%%%%%%%
     Error in routine davcio (10):
     error while writing from file "/kyukon/scratch/gent/437/vsc43752/compmathphys/task4/./out/aiida.wfc12"
 %%%%%%%%%%%%%%%%%%%%%%%%%%%%%%%%%%%%%%%%%%%%%%%%%%%%%%%%%%%%%%%%%%%%%%%%%%%%%%

     stopping ...

 %%%%%%%%%%%%%%%%%%%%%%%%%%%%%%%%%%%%%%%%%%%%%%%%%%%%%%%%%%%%%%%%%%%%%%%%%%%%%%
     Error in routine davcio (10):
     error while writing from file "/kyukon/scratch/gent/437/vsc43752/compmathphys/task4/./out/aiida.wfc5"
 %%%%%%%%%%%%%%%%%%%%%%%%%%%%%%%%%%%%%%%%%%%%%%%%%%%%%%%%%%%%%%%%%%%%%%%%%%%%%%

     stopping ...

 %%%%%%%%%%%%%%%%%%%%%%%%%%%%%%%%%%%%%%%%%%%%%%%%%%%%%%%%%%%%%%%%%%%%%%%%%%%%%%
     Error in routine davcio (10):
     error while writing from file "/kyukon/scratch/gent/437/vsc43752/compmathphys/task4/./out/aiida.wfc10"
 %%%%%%%%%%%%%%%%%%%%%%%%%%%%%%%%%%%%%%%%%%%%%%%%%%%%%%%%%%%%%%%%%%%%%%%%%%%%%%

     stopping ...

 %%%%%%%%%%%%%%%%%%%%%%%%%%%%%%%%%%%%%%%%%%%%%%%%%%%%%%%%%%%%%%%%%%%%%%%%%%%%%%
     Error in routine davcio (10):
     error while writing from file "/kyukon/scratch/gent/437/vsc43752/compmathphys/task4/./out/aiida.wfc8"
 %%%%%%%%%%%%%%%%%%%%%%%%%%%%%%%%%%%%%%%%%%%%%%%%%%%%%%%%%%%%%%%%%%%%%%%%%%%%%%

     stopping ...

 %%%%%%%%%%%%%%%%%%%%%%%%%%%%%%%%%%%%%%%%%%%%%%%%%%%%%%%%%%%%%%%%%%%%%%%%%%%%%%
     Error in routine davcio (10):
     error while writing from file "/kyukon/scratch/gent/437/vsc43752/compmathphys/task4/./out/aiida.wfc3"
 %%%%%%%%%%%%%%%%%%%%%%%%%%%%%%%%%%%%%%%%%%%%%%%%%%%%%%%%%%%%%%%%%%%%%%%%%%%%%%

     stopping ...
