
     Program PWSCF v.6.5 starts on 15Nov2020 at 18:27:35 

     This program is part of the open-source Quantum ESPRESSO suite
     for quantum simulation of materials; please cite
         "P. Giannozzi et al., J. Phys.:Condens. Matter 21 395502 (2009);
         "P. Giannozzi et al., J. Phys.:Condens. Matter 29 465901 (2017);
          URL http://www.quantum-espresso.org", 
     in publications or presentations arising from this work. More details at
     http://www.quantum-espresso.org/quote

     Parallel version (MPI), running on     1 processors

     MPI processes distributed on     1 nodes
     Reading input from X5C1/config.in

     Current dimensions of program PWSCF are:
     Max number of different atomic species (ntypx) = 10
     Max number of k-points (npk) =  40000
     Max angular momentum in pseudopotentials (lmaxx) =  3

     IMPORTANT: XC functional enforced from input :
     Exchange-correlation= PBE
                           (   1   4   3   4   0   0   0)
     Any further DFT definition will be discarded
     Please, verify this is what you really want

               file Fe.pbe-spn-kjpaw_psl.0.2.1.UPF: wavefunction(s)  3D renormalized

     Subspace diagonalization in iterative solution of the eigenvalue problem:
     a serial algorithm will be used

     Message from routine setup:
     using ibrav=0 with symmetry is DISCOURAGED, use correct ibrav instead

     G-vector sticks info
     --------------------
     sticks:   dense  smooth     PW     G-vecs:    dense   smooth      PW
     Sum        6961    3983   1117               347665   150125   21945



     bravais-lattice index     =            0
     lattice parameter (alat)  =       7.2065  a.u.
     unit-cell volume          =     670.9095 (a.u.)^3
     number of atoms/cell      =           10
     number of atomic types    =            2
     number of electrons       =       138.00
     number of Kohn-Sham states=           83
     kinetic-energy cutoff     =     140.0000  Ry
     charge density cutoff     =     980.0000  Ry
     convergence threshold     =      2.0E-09
     mixing beta               =       0.4000
     number of iterations used =            8  plain     mixing
     Exchange-correlation= PBE
                           (   1   4   3   4   0   0   0)
     nstep                     =           50


     celldm(1)=   7.206527  celldm(2)=   0.000000  celldm(3)=   0.000000
     celldm(4)=   0.000000  celldm(5)=   0.000000  celldm(6)=   0.000000

     crystal axes: (cart. coord. in units of alat)
               a(1) = (   1.000000   0.000000   0.000000 )  
               a(2) = (   0.000000   1.722887   0.000000 )  
               a(3) = (   0.139315   0.000000   1.040469 )  

     reciprocal axes: (cart. coord. in units 2 pi/alat)
               b(1) = (  1.000000  0.000000 -0.133896 )  
               b(2) = (  0.000000  0.580421  0.000000 )  
               b(3) = (  0.000000  0.000000  0.961105 )  


     PseudoPot. # 1 for N  read from file:
     pseudo/N.pbe-n-radius_5.UPF
     MD5 check sum: 16739722b17309cd8fe442a2ace49922
     Pseudo is Ultrasoft + core correction, Zval =  5.0
     Generated using "atomic" code by A. Dal Corso v.5.1
     Using radial grid of 1085 points,  4 beta functions with: 
                l(1) =   0
                l(2) =   0
                l(3) =   1
                l(4) =   1
     Q(r) pseudized with 0 coefficients 


     PseudoPot. # 2 for Fe read from file:
     pseudo/Fe.pbe-spn-kjpaw_psl.0.2.1.UPF
     MD5 check sum: e86618425769142926afa95317d90200
     Pseudo is Projector augmented-wave + core cor, Zval = 16.0
     Generated using "atomic" code by A. Dal Corso v.5.0.99 svn rev. 10869
     Shape of augmentation charge: PSQ
     Using radial grid of 1191 points,  6 beta functions with: 
                l(1) =   0
                l(2) =   0
                l(3) =   1
                l(4) =   1
                l(5) =   2
                l(6) =   2
     Q(r) pseudized with 0 coefficients 


     atomic species   valence    mass     pseudopotential
        N              5.00    14.00650     N ( 1.00)
        Fe            16.00    55.84500     Fe( 1.00)

      4 Sym. Ops., with inversion, found ( 2 have fractional translation)


                                    s                        frac. trans.

      isym =  1     identity                                     

 cryst.   s( 1) = (     1          0          0      )
                  (     0          1          0      )
                  (     0          0          1      )

 cart.    s( 1) = (  1.0000000  0.0000000  0.0000000 )
                  (  0.0000000  1.0000000  0.0000000 )
                  (  0.0000000  0.0000000  1.0000000 )


      isym =  2     180 deg rotation - cart. axis [0,1,0]        

 cryst.   s( 2) = (    -1          0          0      )    f =(  0.0000000 )
                  (     0          1          0      )       ( -0.5000000 )
                  (     0          0         -1      )       (  0.0000000 )

 cart.    s( 2) = ( -1.0000000  0.0000000  0.0000000 )    f =(  0.0000000 )
                  (  0.0000000  1.0000000  0.0000000 )       ( -0.8614433 )
                  (  0.0000000  0.0000000 -1.0000000 )       (  0.0000000 )


      isym =  3     inversion                                    

 cryst.   s( 3) = (    -1          0          0      )
                  (     0         -1          0      )
                  (     0          0         -1      )

 cart.    s( 3) = ( -1.0000000  0.0000000  0.0000000 )
                  (  0.0000000 -1.0000000  0.0000000 )
                  (  0.0000000  0.0000000 -1.0000000 )


      isym =  4     inv. 180 deg rotation - cart. axis [0,1,0]   

 cryst.   s( 4) = (     1          0          0      )    f =(  0.0000000 )
                  (     0         -1          0      )       (  0.5000000 )
                  (     0          0          1      )       (  0.0000000 )

 cart.    s( 4) = (  1.0000000  0.0000000  0.0000000 )    f =(  0.0000000 )
                  (  0.0000000 -1.0000000  0.0000000 )       (  0.8614433 )
                  (  0.0000000  0.0000000  1.0000000 )       (  0.0000000 )


   Cartesian axes

     site n.     atom                  positions (alat units)
         1           Fe  tau(   1) = (   0.1524899   0.4307217   0.4200997  )
         2           Fe  tau(   2) = (   0.9868252   1.2921650   0.6203692  )
         3           Fe  tau(   3) = (   0.7221474   0.4307217   0.9403342  )
         4           Fe  tau(   4) = (   0.4171677   1.2921650   0.1001347  )
         5           Fe  tau(   5) = (   0.5696575   0.0000000   0.5202345  )
         6           Fe  tau(   6) = (   0.5696575   0.8614433   0.5202345  )
         7           Fe  tau(   7) = (   0.0000000   0.0000000   0.0000000  )
         8           Fe  tau(   8) = (   0.0000000   0.8614433   0.0000000  )
         9           N   tau(   9) = (   0.6524899   0.4307217   0.4200997  )
        10           N   tau(  10) = (   0.4868252   1.2921650   0.6203692  )

   Crystallographic axes

     site n.     atom                  positions (cryst. coord.)
         1           Fe  tau(   1) = (  0.0962400  0.2500000  0.4037600  )
         2           Fe  tau(   2) = (  0.9037600  0.7500000  0.5962400  )
         3           Fe  tau(   3) = (  0.5962400  0.2500000  0.9037600  )
         4           Fe  tau(   4) = (  0.4037600  0.7500000  0.0962400  )
         5           Fe  tau(   5) = (  0.5000000  0.0000000  0.5000000  )
         6           Fe  tau(   6) = (  0.5000000  0.5000000  0.5000000  )
         7           Fe  tau(   7) = (  0.0000000  0.0000000  0.0000000  )
         8           Fe  tau(   8) = (  0.0000000  0.5000000  0.0000000  )
         9           N   tau(   9) = (  0.5962400  0.2500000  0.4037600  )
        10           N   tau(  10) = (  0.4037600  0.7500000  0.5962400  )

     number of k points=   111  Marzari-Vanderbilt smearing, width (Ry)=  0.0147
                       cart. coord. in units 2pi/alat
        k(    1) = (   0.0000000   0.0000000   0.0000000), wk =   0.0055556
        k(    2) = (   0.0000000   0.0000000   0.1201381), wk =   0.0111111
        k(    3) = (   0.0000000   0.0000000   0.2402763), wk =   0.0111111
        k(    4) = (   0.0000000   0.0000000   0.3604144), wk =   0.0111111
        k(    5) = (   0.0000000   0.0000000  -0.4805525), wk =   0.0055556
        k(    6) = (   0.0000000   0.1160842   0.0000000), wk =   0.0111111
        k(    7) = (   0.0000000   0.1160842   0.1201381), wk =   0.0222222
        k(    8) = (   0.0000000   0.1160842   0.2402763), wk =   0.0222222
        k(    9) = (   0.0000000   0.1160842   0.3604144), wk =   0.0222222
        k(   10) = (   0.0000000   0.1160842  -0.4805525), wk =   0.0111111
        k(   11) = (   0.0000000   0.2321685   0.0000000), wk =   0.0111111
        k(   12) = (   0.0000000   0.2321685   0.1201381), wk =   0.0222222
        k(   13) = (   0.0000000   0.2321685   0.2402763), wk =   0.0222222
        k(   14) = (   0.0000000   0.2321685   0.3604144), wk =   0.0222222
        k(   15) = (   0.0000000   0.2321685  -0.4805525), wk =   0.0111111
        k(   16) = (   0.1111111   0.0000000  -0.0148774), wk =   0.0111111
        k(   17) = (   0.1111111   0.0000000   0.1052608), wk =   0.0111111
        k(   18) = (   0.1111111   0.0000000   0.2253989), wk =   0.0111111
        k(   19) = (   0.1111111   0.0000000   0.3455370), wk =   0.0111111
        k(   20) = (   0.1111111   0.0000000  -0.4954299), wk =   0.0111111
        k(   21) = (   0.1111111   0.0000000  -0.3752918), wk =   0.0111111
        k(   22) = (   0.1111111   0.0000000  -0.2551536), wk =   0.0111111
        k(   23) = (   0.1111111   0.0000000  -0.1350155), wk =   0.0111111
        k(   24) = (   0.1111111   0.1160842  -0.0148774), wk =   0.0222222
        k(   25) = (   0.1111111   0.1160842   0.1052608), wk =   0.0222222
        k(   26) = (   0.1111111   0.1160842   0.2253989), wk =   0.0222222
        k(   27) = (   0.1111111   0.1160842   0.3455370), wk =   0.0222222
        k(   28) = (   0.1111111   0.1160842  -0.4954299), wk =   0.0222222
        k(   29) = (   0.1111111   0.1160842  -0.3752918), wk =   0.0222222
        k(   30) = (   0.1111111   0.1160842  -0.2551536), wk =   0.0222222
        k(   31) = (   0.1111111   0.1160842  -0.1350155), wk =   0.0222222
        k(   32) = (   0.1111111   0.2321685  -0.0148774), wk =   0.0222222
        k(   33) = (   0.1111111   0.2321685   0.1052608), wk =   0.0222222
        k(   34) = (   0.1111111   0.2321685   0.2253989), wk =   0.0222222
        k(   35) = (   0.1111111   0.2321685   0.3455370), wk =   0.0222222
        k(   36) = (   0.1111111   0.2321685  -0.4954299), wk =   0.0222222
        k(   37) = (   0.1111111   0.2321685  -0.3752918), wk =   0.0222222
        k(   38) = (   0.1111111   0.2321685  -0.2551536), wk =   0.0222222
        k(   39) = (   0.1111111   0.2321685  -0.1350155), wk =   0.0222222
        k(   40) = (   0.2222222   0.0000000  -0.0297548), wk =   0.0111111
        k(   41) = (   0.2222222   0.0000000   0.0903834), wk =   0.0111111
        k(   42) = (   0.2222222   0.0000000   0.2105215), wk =   0.0111111
        k(   43) = (   0.2222222   0.0000000   0.3306596), wk =   0.0111111
        k(   44) = (   0.2222222   0.0000000  -0.5103073), wk =   0.0111111
        k(   45) = (   0.2222222   0.0000000  -0.3901692), wk =   0.0111111
        k(   46) = (   0.2222222   0.0000000  -0.2700310), wk =   0.0111111
        k(   47) = (   0.2222222   0.0000000  -0.1498929), wk =   0.0111111
        k(   48) = (   0.2222222   0.1160842  -0.0297548), wk =   0.0222222
        k(   49) = (   0.2222222   0.1160842   0.0903834), wk =   0.0222222
        k(   50) = (   0.2222222   0.1160842   0.2105215), wk =   0.0222222
        k(   51) = (   0.2222222   0.1160842   0.3306596), wk =   0.0222222
        k(   52) = (   0.2222222   0.1160842  -0.5103073), wk =   0.0222222
        k(   53) = (   0.2222222   0.1160842  -0.3901692), wk =   0.0222222
        k(   54) = (   0.2222222   0.1160842  -0.2700310), wk =   0.0222222
        k(   55) = (   0.2222222   0.1160842  -0.1498929), wk =   0.0222222
        k(   56) = (   0.2222222   0.2321685  -0.0297548), wk =   0.0222222
        k(   57) = (   0.2222222   0.2321685   0.0903834), wk =   0.0222222
        k(   58) = (   0.2222222   0.2321685   0.2105215), wk =   0.0222222
        k(   59) = (   0.2222222   0.2321685   0.3306596), wk =   0.0222222
        k(   60) = (   0.2222222   0.2321685  -0.5103073), wk =   0.0222222
        k(   61) = (   0.2222222   0.2321685  -0.3901692), wk =   0.0222222
        k(   62) = (   0.2222222   0.2321685  -0.2700310), wk =   0.0222222
        k(   63) = (   0.2222222   0.2321685  -0.1498929), wk =   0.0222222
        k(   64) = (   0.3333333   0.0000000  -0.0446321), wk =   0.0111111
        k(   65) = (   0.3333333   0.0000000   0.0755060), wk =   0.0111111
        k(   66) = (   0.3333333   0.0000000   0.1956441), wk =   0.0111111
        k(   67) = (   0.3333333   0.0000000   0.3157823), wk =   0.0111111
        k(   68) = (   0.3333333   0.0000000  -0.5251847), wk =   0.0111111
        k(   69) = (   0.3333333   0.0000000  -0.4050465), wk =   0.0111111
        k(   70) = (   0.3333333   0.0000000  -0.2849084), wk =   0.0111111
        k(   71) = (   0.3333333   0.0000000  -0.1647703), wk =   0.0111111
        k(   72) = (   0.3333333   0.1160842  -0.0446321), wk =   0.0222222
        k(   73) = (   0.3333333   0.1160842   0.0755060), wk =   0.0222222
        k(   74) = (   0.3333333   0.1160842   0.1956441), wk =   0.0222222
        k(   75) = (   0.3333333   0.1160842   0.3157823), wk =   0.0222222
        k(   76) = (   0.3333333   0.1160842  -0.5251847), wk =   0.0222222
        k(   77) = (   0.3333333   0.1160842  -0.4050465), wk =   0.0222222
        k(   78) = (   0.3333333   0.1160842  -0.2849084), wk =   0.0222222
        k(   79) = (   0.3333333   0.1160842  -0.1647703), wk =   0.0222222
        k(   80) = (   0.3333333   0.2321685  -0.0446321), wk =   0.0222222
        k(   81) = (   0.3333333   0.2321685   0.0755060), wk =   0.0222222
        k(   82) = (   0.3333333   0.2321685   0.1956441), wk =   0.0222222
        k(   83) = (   0.3333333   0.2321685   0.3157823), wk =   0.0222222
        k(   84) = (   0.3333333   0.2321685  -0.5251847), wk =   0.0222222
        k(   85) = (   0.3333333   0.2321685  -0.4050465), wk =   0.0222222
        k(   86) = (   0.3333333   0.2321685  -0.2849084), wk =   0.0222222
        k(   87) = (   0.3333333   0.2321685  -0.1647703), wk =   0.0222222
        k(   88) = (   0.4444444   0.0000000  -0.0595095), wk =   0.0111111
        k(   89) = (   0.4444444   0.0000000   0.0606286), wk =   0.0111111
        k(   90) = (   0.4444444   0.0000000   0.1807667), wk =   0.0111111
        k(   91) = (   0.4444444   0.0000000   0.3009049), wk =   0.0111111
        k(   92) = (   0.4444444   0.0000000  -0.5400621), wk =   0.0111111
        k(   93) = (   0.4444444   0.0000000  -0.4199239), wk =   0.0111111
        k(   94) = (   0.4444444   0.0000000  -0.2997858), wk =   0.0111111
        k(   95) = (   0.4444444   0.0000000  -0.1796477), wk =   0.0111111
        k(   96) = (   0.4444444   0.1160842  -0.0595095), wk =   0.0222222
        k(   97) = (   0.4444444   0.1160842   0.0606286), wk =   0.0222222
        k(   98) = (   0.4444444   0.1160842   0.1807667), wk =   0.0222222
        k(   99) = (   0.4444444   0.1160842   0.3009049), wk =   0.0222222
        k(  100) = (   0.4444444   0.1160842  -0.5400621), wk =   0.0222222
        k(  101) = (   0.4444444   0.1160842  -0.4199239), wk =   0.0222222
        k(  102) = (   0.4444444   0.1160842  -0.2997858), wk =   0.0222222
        k(  103) = (   0.4444444   0.1160842  -0.1796477), wk =   0.0222222
        k(  104) = (   0.4444444   0.2321685  -0.0595095), wk =   0.0222222
        k(  105) = (   0.4444444   0.2321685   0.0606286), wk =   0.0222222
        k(  106) = (   0.4444444   0.2321685   0.1807667), wk =   0.0222222
        k(  107) = (   0.4444444   0.2321685   0.3009049), wk =   0.0222222
        k(  108) = (   0.4444444   0.2321685  -0.5400621), wk =   0.0222222
        k(  109) = (   0.4444444   0.2321685  -0.4199239), wk =   0.0222222
        k(  110) = (   0.4444444   0.2321685  -0.2997858), wk =   0.0222222
        k(  111) = (   0.4444444   0.2321685  -0.1796477), wk =   0.0222222

                       cryst. coord.
        k(    1) = (   0.0000000   0.0000000   0.0000000), wk =   0.0055556
        k(    2) = (   0.0000000   0.0000000   0.1250000), wk =   0.0111111
        k(    3) = (   0.0000000   0.0000000   0.2500000), wk =   0.0111111
        k(    4) = (   0.0000000   0.0000000   0.3750000), wk =   0.0111111
        k(    5) = (   0.0000000   0.0000000  -0.5000000), wk =   0.0055556
        k(    6) = (   0.0000000   0.2000000   0.0000000), wk =   0.0111111
        k(    7) = (   0.0000000   0.2000000   0.1250000), wk =   0.0222222
        k(    8) = (   0.0000000   0.2000000   0.2500000), wk =   0.0222222
        k(    9) = (   0.0000000   0.2000000   0.3750000), wk =   0.0222222
        k(   10) = (   0.0000000   0.2000000  -0.5000000), wk =   0.0111111
        k(   11) = (   0.0000000   0.4000000   0.0000000), wk =   0.0111111
        k(   12) = (   0.0000000   0.4000000   0.1250000), wk =   0.0222222
        k(   13) = (   0.0000000   0.4000000   0.2500000), wk =   0.0222222
        k(   14) = (   0.0000000   0.4000000   0.3750000), wk =   0.0222222
        k(   15) = (   0.0000000   0.4000000  -0.5000000), wk =   0.0111111
        k(   16) = (   0.1111111   0.0000000  -0.0000000), wk =   0.0111111
        k(   17) = (   0.1111111   0.0000000   0.1250000), wk =   0.0111111
        k(   18) = (   0.1111111   0.0000000   0.2500000), wk =   0.0111111
        k(   19) = (   0.1111111   0.0000000   0.3750000), wk =   0.0111111
        k(   20) = (   0.1111111   0.0000000  -0.5000000), wk =   0.0111111
        k(   21) = (   0.1111111   0.0000000  -0.3750000), wk =   0.0111111
        k(   22) = (   0.1111111   0.0000000  -0.2500000), wk =   0.0111111
        k(   23) = (   0.1111111   0.0000000  -0.1250000), wk =   0.0111111
        k(   24) = (   0.1111111   0.2000000  -0.0000000), wk =   0.0222222
        k(   25) = (   0.1111111   0.2000000   0.1250000), wk =   0.0222222
        k(   26) = (   0.1111111   0.2000000   0.2500000), wk =   0.0222222
        k(   27) = (   0.1111111   0.2000000   0.3750000), wk =   0.0222222
        k(   28) = (   0.1111111   0.2000000  -0.5000000), wk =   0.0222222
        k(   29) = (   0.1111111   0.2000000  -0.3750000), wk =   0.0222222
        k(   30) = (   0.1111111   0.2000000  -0.2500000), wk =   0.0222222
        k(   31) = (   0.1111111   0.2000000  -0.1250000), wk =   0.0222222
        k(   32) = (   0.1111111   0.4000000  -0.0000000), wk =   0.0222222
        k(   33) = (   0.1111111   0.4000000   0.1250000), wk =   0.0222222
        k(   34) = (   0.1111111   0.4000000   0.2500000), wk =   0.0222222
        k(   35) = (   0.1111111   0.4000000   0.3750000), wk =   0.0222222
        k(   36) = (   0.1111111   0.4000000  -0.5000000), wk =   0.0222222
        k(   37) = (   0.1111111   0.4000000  -0.3750000), wk =   0.0222222
        k(   38) = (   0.1111111   0.4000000  -0.2500000), wk =   0.0222222
        k(   39) = (   0.1111111   0.4000000  -0.1250000), wk =   0.0222222
        k(   40) = (   0.2222222   0.0000000  -0.0000000), wk =   0.0111111
        k(   41) = (   0.2222222   0.0000000   0.1250000), wk =   0.0111111
        k(   42) = (   0.2222222   0.0000000   0.2500000), wk =   0.0111111
        k(   43) = (   0.2222222   0.0000000   0.3750000), wk =   0.0111111
        k(   44) = (   0.2222222   0.0000000  -0.5000000), wk =   0.0111111
        k(   45) = (   0.2222222   0.0000000  -0.3750000), wk =   0.0111111
        k(   46) = (   0.2222222   0.0000000  -0.2500000), wk =   0.0111111
        k(   47) = (   0.2222222   0.0000000  -0.1250000), wk =   0.0111111
        k(   48) = (   0.2222222   0.2000000  -0.0000000), wk =   0.0222222
        k(   49) = (   0.2222222   0.2000000   0.1250000), wk =   0.0222222
        k(   50) = (   0.2222222   0.2000000   0.2500000), wk =   0.0222222
        k(   51) = (   0.2222222   0.2000000   0.3750000), wk =   0.0222222
        k(   52) = (   0.2222222   0.2000000  -0.5000000), wk =   0.0222222
        k(   53) = (   0.2222222   0.2000000  -0.3750000), wk =   0.0222222
        k(   54) = (   0.2222222   0.2000000  -0.2500000), wk =   0.0222222
        k(   55) = (   0.2222222   0.2000000  -0.1250000), wk =   0.0222222
        k(   56) = (   0.2222222   0.4000000  -0.0000000), wk =   0.0222222
        k(   57) = (   0.2222222   0.4000000   0.1250000), wk =   0.0222222
        k(   58) = (   0.2222222   0.4000000   0.2500000), wk =   0.0222222
        k(   59) = (   0.2222222   0.4000000   0.3750000), wk =   0.0222222
        k(   60) = (   0.2222222   0.4000000  -0.5000000), wk =   0.0222222
        k(   61) = (   0.2222222   0.4000000  -0.3750000), wk =   0.0222222
        k(   62) = (   0.2222222   0.4000000  -0.2500000), wk =   0.0222222
        k(   63) = (   0.2222222   0.4000000  -0.1250000), wk =   0.0222222
        k(   64) = (   0.3333333   0.0000000   0.0000000), wk =   0.0111111
        k(   65) = (   0.3333333   0.0000000   0.1250000), wk =   0.0111111
        k(   66) = (   0.3333333   0.0000000   0.2500000), wk =   0.0111111
        k(   67) = (   0.3333333   0.0000000   0.3750000), wk =   0.0111111
        k(   68) = (   0.3333333   0.0000000  -0.5000000), wk =   0.0111111
        k(   69) = (   0.3333333   0.0000000  -0.3750000), wk =   0.0111111
        k(   70) = (   0.3333333   0.0000000  -0.2500000), wk =   0.0111111
        k(   71) = (   0.3333333   0.0000000  -0.1250000), wk =   0.0111111
        k(   72) = (   0.3333333   0.2000000   0.0000000), wk =   0.0222222
        k(   73) = (   0.3333333   0.2000000   0.1250000), wk =   0.0222222
        k(   74) = (   0.3333333   0.2000000   0.2500000), wk =   0.0222222
        k(   75) = (   0.3333333   0.2000000   0.3750000), wk =   0.0222222
        k(   76) = (   0.3333333   0.2000000  -0.5000000), wk =   0.0222222
        k(   77) = (   0.3333333   0.2000000  -0.3750000), wk =   0.0222222
        k(   78) = (   0.3333333   0.2000000  -0.2500000), wk =   0.0222222
        k(   79) = (   0.3333333   0.2000000  -0.1250000), wk =   0.0222222
        k(   80) = (   0.3333333   0.4000000   0.0000000), wk =   0.0222222
        k(   81) = (   0.3333333   0.4000000   0.1250000), wk =   0.0222222
        k(   82) = (   0.3333333   0.4000000   0.2500000), wk =   0.0222222
        k(   83) = (   0.3333333   0.4000000   0.3750000), wk =   0.0222222
        k(   84) = (   0.3333333   0.4000000  -0.5000000), wk =   0.0222222
        k(   85) = (   0.3333333   0.4000000  -0.3750000), wk =   0.0222222
        k(   86) = (   0.3333333   0.4000000  -0.2500000), wk =   0.0222222
        k(   87) = (   0.3333333   0.4000000  -0.1250000), wk =   0.0222222
        k(   88) = (   0.4444444   0.0000000  -0.0000000), wk =   0.0111111
        k(   89) = (   0.4444444   0.0000000   0.1250000), wk =   0.0111111
        k(   90) = (   0.4444444   0.0000000   0.2500000), wk =   0.0111111
        k(   91) = (   0.4444444   0.0000000   0.3750000), wk =   0.0111111
        k(   92) = (   0.4444444   0.0000000  -0.5000000), wk =   0.0111111
        k(   93) = (   0.4444444   0.0000000  -0.3750000), wk =   0.0111111
        k(   94) = (   0.4444444   0.0000000  -0.2500000), wk =   0.0111111
        k(   95) = (   0.4444444   0.0000000  -0.1250000), wk =   0.0111111
        k(   96) = (   0.4444444   0.2000000  -0.0000000), wk =   0.0222222
        k(   97) = (   0.4444444   0.2000000   0.1250000), wk =   0.0222222
        k(   98) = (   0.4444444   0.2000000   0.2500000), wk =   0.0222222
        k(   99) = (   0.4444444   0.2000000   0.3750000), wk =   0.0222222
        k(  100) = (   0.4444444   0.2000000  -0.5000000), wk =   0.0222222
        k(  101) = (   0.4444444   0.2000000  -0.3750000), wk =   0.0222222
        k(  102) = (   0.4444444   0.2000000  -0.2500000), wk =   0.0222222
        k(  103) = (   0.4444444   0.2000000  -0.1250000), wk =   0.0222222
        k(  104) = (   0.4444444   0.4000000  -0.0000000), wk =   0.0222222
        k(  105) = (   0.4444444   0.4000000   0.1250000), wk =   0.0222222
        k(  106) = (   0.4444444   0.4000000   0.2500000), wk =   0.0222222
        k(  107) = (   0.4444444   0.4000000   0.3750000), wk =   0.0222222
        k(  108) = (   0.4444444   0.4000000  -0.5000000), wk =   0.0222222
        k(  109) = (   0.4444444   0.4000000  -0.3750000), wk =   0.0222222
        k(  110) = (   0.4444444   0.4000000  -0.2500000), wk =   0.0222222
        k(  111) = (   0.4444444   0.4000000  -0.1250000), wk =   0.0222222

     Dense  grid:   347665 G-vectors     FFT dimensions: (  72, 128,  75)

     Smooth grid:   150125 G-vectors     FFT dimensions: (  60,  96,  60)
